 Entering Gaussian System, Link 0=g16
 Input=co3.h2o.com
 Output=co3.h2o.com.log
 Initial command:
 /usr/site/hpc/x86_64/glibc-2.17/haswell/gaussian/g16_a.03/pgi-16.5/g16/l1.exe "/gpfs/gpfs1/scratch/c7441219/CO3/TEMP/Gau-4052721.inp" -scrdir="/gpfs/gpfs1/scratch/c7441219/CO3/TEMP/"
 Entering Link 1 = /usr/site/hpc/x86_64/glibc-2.17/haswell/gaussian/g16_a.03/pgi-16.5/g16/l1.exe PID=   4052722.
  
 Copyright (c) 1988,1990,1992,1993,1995,1998,2003,2009,2016,
            Gaussian, Inc.  All Rights Reserved.
  
 This is part of the Gaussian(R) 16 program.  It is based on
 the Gaussian(R) 09 system (copyright 2009, Gaussian, Inc.),
 the Gaussian(R) 03 system (copyright 2003, Gaussian, Inc.),
 the Gaussian(R) 98 system (copyright 1998, Gaussian, Inc.),
 the Gaussian(R) 94 system (copyright 1995, Gaussian, Inc.),
 the Gaussian 92(TM) system (copyright 1992, Gaussian, Inc.),
 the Gaussian 90(TM) system (copyright 1990, Gaussian, Inc.),
 the Gaussian 88(TM) system (copyright 1988, Gaussian, Inc.),
 the Gaussian 86(TM) system (copyright 1986, Carnegie Mellon
 University), and the Gaussian 82(TM) system (copyright 1983,
 Carnegie Mellon University). Gaussian is a federally registered
 trademark of Gaussian, Inc.
  
 This software contains proprietary and confidential information,
 including trade secrets, belonging to Gaussian, Inc.
  
 This software is provided under written license and may be
 used, copied, transmitted, or stored only in accord with that
 written license.
  
 The following legend is applicable only to US Government
 contracts under FAR:
  
                    RESTRICTED RIGHTS LEGEND
  
 Use, reproduction and disclosure by the US Government is
 subject to restrictions as set forth in subparagraphs (a)
 and (c) of the Commercial Computer Software - Restricted
 Rights clause in FAR 52.227-19.
  
 Gaussian, Inc.
 340 Quinnipiac St., Bldg. 40, Wallingford CT 06492
  
  
 ---------------------------------------------------------------
 Warning -- This program may not be used in any manner that
 competes with the business of Gaussian, Inc. or will provide
 assistance to any competitor of Gaussian, Inc.  The licensee
 of this program is prohibited from giving any competitor of
 Gaussian, Inc. access to this program.  By using this program,
 the user acknowledges that Gaussian, Inc. is engaged in the
 business of creating and licensing software in the field of
 computational chemistry and represents and warrants to the
 licensee that it is not a competitor of Gaussian, Inc. and that
 it will not use this program in any manner prohibited above.
 ---------------------------------------------------------------
  

 Cite this work as:
 Gaussian 16, Revision A.03,
 M. J. Frisch, G. W. Trucks, H. B. Schlegel, G. E. Scuseria, 
 M. A. Robb, J. R. Cheeseman, G. Scalmani, V. Barone, 
 G. A. Petersson, H. Nakatsuji, X. Li, M. Caricato, A. V. Marenich, 
 J. Bloino, B. G. Janesko, R. Gomperts, B. Mennucci, H. P. Hratchian, 
 J. V. Ortiz, A. F. Izmaylov, J. L. Sonnenberg, D. Williams-Young, 
 F. Ding, F. Lipparini, F. Egidi, J. Goings, B. Peng, A. Petrone, 
 T. Henderson, D. Ranasinghe, V. G. Zakrzewski, J. Gao, N. Rega, 
 G. Zheng, W. Liang, M. Hada, M. Ehara, K. Toyota, R. Fukuda, 
 J. Hasegawa, M. Ishida, T. Nakajima, Y. Honda, O. Kitao, H. Nakai, 
 T. Vreven, K. Throssell, J. A. Montgomery, Jr., J. E. Peralta, 
 F. Ogliaro, M. J. Bearpark, J. J. Heyd, E. N. Brothers, K. N. Kudin, 
 V. N. Staroverov, T. A. Keith, R. Kobayashi, J. Normand, 
 K. Raghavachari, A. P. Rendell, J. C. Burant, S. S. Iyengar, 
 J. Tomasi, M. Cossi, J. M. Millam, M. Klene, C. Adamo, R. Cammi, 
 J. W. Ochterski, R. L. Martin, K. Morokuma, O. Farkas, 
 J. B. Foresman, and D. J. Fox, Gaussian, Inc., Wallingford CT, 2016.
 
 ******************************************
 Gaussian 16:  ES64L-G16RevA.03 25-Dec-2016
                23-Feb-2022 
 ******************************************
 %nproc=20
 Will use up to   20 processors via shared memory.
 %mem=20GB
 %chk=co3.1.i3.cc_acp.stable.chk
 ------------------------------------
 #p HF/aug-cc-pVDZ scf=xqc stable=opt
 ------------------------------------
 1/38=1,172=1/1;
 2/12=2,17=6,18=5,40=1/2;
 3/5=16,7=10,11=2,25=1,30=1/1,2,3;
 4//1;
 5/5=2,8=3,13=1,38=5/2,8;
 6/7=2,8=2,9=2,10=2,28=1/1;
 8/6=1,10=90,11=11/1;
 9/8=-3,42=1,46=1/14;
 5/5=2,8=3,17=40,38=5/8(-2);
 6/7=2,8=2,9=2,10=2,28=1/1;
 99/5=1,9=1/99;
 Leave Link    1 at Wed Feb 23 15:23:18 2022, MaxMem=  2684354560 cpu:               2.5 elap:               0.1
 (Enter /usr/site/hpc/x86_64/glibc-2.17/haswell/gaussian/g16_a.03/pgi-16.5/g16/l101.exe)
 -------------------------
 co3w2- groundstate energy
 -------------------------
 Symbolic Z-matrix:
 Charge = -1 Multiplicity = 2
 C                    -0.81548   0.08782   0. 
 O                    -0.44486  -1.18108   0. 
 O                    -2.08827   0.14852   0. 
 O                     0.01515   1.02784   0. 
 O                     2.61891  -0.00229   0. 
 H                     1.74745   0.45431   0. 
 H                     2.33795  -0.92512   0. 
 
 ITRead=  0  0  0  0  0  0  0
 MicOpt= -1 -1 -1 -1 -1 -1 -1
 NAtoms=      7 NQM=        7 NQMF=       0 NMMI=      0 NMMIF=      0
                NMic=       0 NMicF=      0.
                    Isotopes and Nuclear Properties:
 (Nuclear quadrupole moments (NQMom) in fm**2, nuclear magnetic moments (NMagM)
  in nuclear magnetons)

  Atom         1           2           3           4           5           6           7
 IAtWgt=          12          16          16          16          16           1           1
 AtmWgt=  12.0000000  15.9949146  15.9949146  15.9949146  15.9949146   1.0078250   1.0078250
 NucSpn=           0           0           0           0           0           1           1
 AtZEff=  -0.0000000  -0.0000000  -0.0000000  -0.0000000  -0.0000000  -0.0000000  -0.0000000
 NQMom=    0.0000000   0.0000000   0.0000000   0.0000000   0.0000000   0.0000000   0.0000000
 NMagM=    0.0000000   0.0000000   0.0000000   0.0000000   0.0000000   2.7928460   2.7928460
 AtZNuc=   6.0000000   8.0000000   8.0000000   8.0000000   8.0000000   1.0000000   1.0000000
 Leave Link  101 at Wed Feb 23 15:23:18 2022, MaxMem=  2684354560 cpu:               1.8 elap:               0.1
 (Enter /usr/site/hpc/x86_64/glibc-2.17/haswell/gaussian/g16_a.03/pgi-16.5/g16/l202.exe)
                          Input orientation:                          
 ---------------------------------------------------------------------
 Center     Atomic      Atomic             Coordinates (Angstroms)
 Number     Number       Type             X           Y           Z
 ---------------------------------------------------------------------
      1          6           0       -0.815482    0.087816    0.000000
      2          8           0       -0.444860   -1.181080    0.000000
      3          8           0       -2.088266    0.148521    0.000000
      4          8           0        0.015154    1.027840    0.000000
      5          8           0        2.618909   -0.002293    0.000000
      6          1           0        1.747451    0.454314    0.000000
      7          1           0        2.337951   -0.925122    0.000000
 ---------------------------------------------------------------------
                    Distance matrix (angstroms):
                    1          2          3          4          5
     1  C    0.000000
     2  O    1.321914   0.000000
     3  O    1.274231   2.113912   0.000000
     4  O    1.254433   2.256311   2.279820   0.000000
     5  O    3.435573   3.282715   4.709590   2.800128   0.000000
     6  H    2.589005   2.735094   3.847887   1.824770   0.983834
     7  H    3.312127   2.794557   4.554570   3.034707   0.964651
                    6          7
     6  H    0.000000
     7  H    1.500511   0.000000
 Stoichiometry    CH2O4(1-,2)
 Framework group  CS[SG(CH2O4)]
 Deg. of freedom    11
 Full point group                 CS      NOp   2
 Largest Abelian subgroup         CS      NOp   2
 Largest concise Abelian subgroup C1      NOp   1
                         Standard orientation:                         
 ---------------------------------------------------------------------
 Center     Atomic      Atomic             Coordinates (Angstroms)
 Number     Number       Type             X           Y           Z
 ---------------------------------------------------------------------
      1          6           0        0.000000    0.820197    0.000000
      2          8           0        1.221921    0.315848    0.000000
      3          8           0        0.075917    2.092164    0.000000
      4          8           0       -1.023554    0.094981    0.000000
      5          8           0       -0.278120   -2.604100   -0.000000
      6          1           0       -0.638797   -1.688764   -0.000000
      7          1           0        0.669486   -2.423562   -0.000000
 ---------------------------------------------------------------------
 Rotational constants (GHZ):          12.4137677           2.5396901           2.1083500
 Leave Link  202 at Wed Feb 23 15:23:19 2022, MaxMem=  2684354560 cpu:               1.7 elap:               0.1
 (Enter /usr/site/hpc/x86_64/glibc-2.17/haswell/gaussian/g16_a.03/pgi-16.5/g16/l301.exe)
 Standard basis: Aug-CC-pVDZ (5D, 7F)
 Ernie: Thresh=  0.10000D-02 Tol=  0.10000D-05 Strict=F.
 Ernie:  10 primitive shells out of 139 were deleted.
 There are   104 symmetry adapted cartesian basis functions of A'  symmetry.
 There are    39 symmetry adapted cartesian basis functions of A"  symmetry.
 There are    94 symmetry adapted basis functions of A'  symmetry.
 There are    39 symmetry adapted basis functions of A"  symmetry.
   133 basis functions,   237 primitive gaussians,   143 cartesian basis functions
    21 alpha electrons       20 beta electrons
       nuclear repulsion energy       162.3168745348 Hartrees.
 IExCor=    0 DFT=F Ex=HF Corr=None ExCW=0 ScaHFX=  1.000000
 ScaDFX=  1.000000  1.000000  1.000000  1.000000 ScalE2=  1.000000  1.000000
 IRadAn=      5 IRanWt=     -1 IRanGd=            0 ICorTp=0 IEmpDi=  4
 NAtoms=    7 NActive=    7 NUniq=    7 SFac= 1.00D+00 NAtFMM=   60 NAOKFM=F Big=F
 Integral buffers will be    131072 words long.
 Raffenetti 2 integral format.
 Two-electron integral symmetry is turned on.
 Leave Link  301 at Wed Feb 23 15:23:19 2022, MaxMem=  2684354560 cpu:               0.8 elap:               0.1
 (Enter /usr/site/hpc/x86_64/glibc-2.17/haswell/gaussian/g16_a.03/pgi-16.5/g16/l302.exe)
 NPDir=0 NMtPBC=     1 NCelOv=     1 NCel=       1 NClECP=     1 NCelD=      1
         NCelK=      1 NCelE2=     1 NClLst=     1 CellRange=     0.0.
 One-electron integrals computed using PRISM.
 One-electron integral symmetry used in STVInt
 NBasis=   133 RedAO= T EigKep=  8.92D-04  NBF=    94    39
 NBsUse=   133 1.00D-06 EigRej= -1.00D+00 NBFU=    94    39
 Leave Link  302 at Wed Feb 23 15:23:19 2022, MaxMem=  2684354560 cpu:               6.7 elap:               0.4
 (Enter /usr/site/hpc/x86_64/glibc-2.17/haswell/gaussian/g16_a.03/pgi-16.5/g16/l303.exe)
 DipDrv:  MaxL=1.
 Leave Link  303 at Wed Feb 23 15:23:19 2022, MaxMem=  2684354560 cpu:               0.5 elap:               0.0
 (Enter /usr/site/hpc/x86_64/glibc-2.17/haswell/gaussian/g16_a.03/pgi-16.5/g16/l401.exe)
 ExpMin= 2.97D-02 ExpMax= 1.17D+04 ExpMxC= 4.01D+02 IAcc=3 IRadAn=         5 AccDes= 0.00D+00
 Harris functional with IExCor=  205 and IRadAn=       5 diagonalized for initial guess.
 HarFok:  IExCor=  205 AccDes= 0.00D+00 IRadAn=         5 IDoV= 1 UseB2=F ITyADJ=14
 ICtDFT=  3500011 ScaDFX=  1.000000  1.000000  1.000000  1.000000
 FoFCou: FMM=F IPFlag=           0 FMFlag=      100000 FMFlg1=           0
         NFxFlg=           0 DoJE=T BraDBF=F KetDBF=T FulRan=T
         wScrn=  0.000000 ICntrl=       500 IOpCl=  0 I1Cent=   200000004 NGrid=           0
         NMat0=    1 NMatS0=      1 NMatT0=    0 NMatD0=    1 NMtDS0=    0 NMtDT0=    0
 Petite list used in FoFCou.
 Harris En= -338.845414669876    
 JPrj=0 DoOrth=F DoCkMO=F.
 Initial guess orbital symmetries:
 Alpha Orbitals:
       Occupied  (A') (A') (A') (A') (A') (A') (A') (A') (A') (A')
                 (A') (A') (A') (A") (A') (A") (A') (A') (A") (A")
                 (A')
       Virtual   (A") (A') (A') (A') (A") (A') (A') (A') (A") (A')
                 (A') (A") (A') (A') (A') (A") (A') (A') (A") (A')
                 (A') (A') (A') (A') (A") (A') (A") (A') (A') (A')
                 (A') (A") (A') (A") (A') (A') (A') (A") (A') (A')
                 (A') (A') (A') (A') (A') (A") (A") (A') (A") (A")
                 (A') (A") (A') (A') (A") (A") (A") (A') (A') (A')
                 (A') (A') (A') (A") (A') (A') (A") (A") (A") (A')
                 (A') (A') (A') (A') (A") (A') (A') (A") (A') (A")
                 (A") (A') (A') (A') (A') (A') (A') (A') (A') (A')
                 (A') (A') (A") (A") (A") (A") (A') (A") (A') (A')
                 (A") (A') (A") (A') (A") (A') (A') (A') (A') (A')
                 (A') (A')
 Beta  Orbitals:
       Occupied  (A') (A') (A') (A') (A') (A') (A') (A') (A') (A')
                 (A') (A') (A') (A") (A') (A") (A') (A') (A") (A")
       Virtual   (A') (A") (A') (A') (A') (A") (A') (A') (A') (A")
                 (A') (A') (A") (A') (A') (A') (A") (A') (A') (A")
                 (A') (A') (A') (A') (A') (A") (A') (A") (A') (A')
                 (A') (A') (A") (A') (A") (A') (A') (A') (A") (A')
                 (A') (A') (A') (A') (A') (A') (A") (A") (A') (A")
                 (A") (A') (A") (A') (A') (A") (A") (A") (A') (A')
                 (A') (A') (A') (A') (A") (A') (A') (A") (A") (A")
                 (A') (A') (A') (A') (A') (A") (A') (A') (A") (A')
                 (A") (A") (A') (A') (A') (A') (A') (A') (A') (A')
                 (A') (A') (A') (A") (A") (A") (A") (A') (A") (A')
                 (A') (A") (A') (A") (A') (A") (A') (A') (A') (A')
                 (A') (A') (A')
 The electronic state of the initial guess is 2-A'.
 Initial guess <Sx>= 0.0000 <Sy>= 0.0000 <Sz>= 0.5000 <S**2>= 0.7500 S= 0.5000
 Leave Link  401 at Wed Feb 23 15:23:19 2022, MaxMem=  2684354560 cpu:               4.2 elap:               0.2
 (Enter /usr/site/hpc/x86_64/glibc-2.17/haswell/gaussian/g16_a.03/pgi-16.5/g16/l502.exe)
 Keep R1 and R2 ints in memory in symmetry-blocked form, NReq=61458515.
 FoFCou: FMM=F IPFlag=           0 FMFlag=           0 FMFlg1=           0
         NFxFlg=           0 DoJE=F BraDBF=F KetDBF=F FulRan=T
         wScrn=  0.000000 ICntrl=       600 IOpCl=  0 I1Cent=           0 NGrid=           0
         NMat0=    1 NMatS0=   8911 NMatT0=    0 NMatD0=    1 NMtDS0=    0 NMtDT0=    0
 Petite list used in FoFCou.
 UHF open shell SCF:
 Using DIIS extrapolation, IDIIS=  1040.
 NGot=  2684354560 LenX=  2643331003 LenY=  2643310113
 Requested convergence on RMS density matrix=1.00D-08 within  32 cycles.
 Requested convergence on MAX density matrix=1.00D-06.
 Requested convergence on             energy=1.00D-06.
 No special actions if energy rises.

 Cycle   1  Pass 1  IDiag  1:
 E= -338.351289691471    
 DIIS: error= 4.19D-02 at cycle   1 NSaved=   1.
 NSaved= 1 IEnMin= 1 EnMin= -338.351289691471     IErMin= 1 ErrMin= 4.19D-02
 ErrMax= 4.19D-02  0.00D+00 EMaxC= 1.00D-01 BMatC= 1.27D+00 BMatP= 1.27D+00
 IDIUse=3 WtCom= 5.81D-01 WtEn= 4.19D-01
 Coeff-Com:  0.100D+01
 Coeff-En:   0.100D+01
 Coeff:      0.100D+01
 Gap=     0.502 Goal=   None    Shift=    0.000
 Gap=     0.394 Goal=   None    Shift=    0.000
 GapD=    0.394 DampG=1.000 DampE=0.500 DampFc=0.5000 IDamp=-1.
 Damping current iteration by 5.00D-01
 RMSDP=3.58D-03 MaxDP=1.20D-01              OVMax= 1.34D-01

 Cycle   2  Pass 1  IDiag  1:
 E= -338.453983646668     Delta-E=       -0.102693955198 Rises=F Damp=T
 DIIS: error= 1.30D-02 at cycle   2 NSaved=   2.
 NSaved= 2 IEnMin= 2 EnMin= -338.453983646668     IErMin= 2 ErrMin= 1.30D-02
 ErrMax= 1.30D-02  0.00D+00 EMaxC= 1.00D-01 BMatC= 2.01D-01 BMatP= 1.27D+00
 IDIUse=3 WtCom= 8.70D-01 WtEn= 1.30D-01
 Coeff-Com: -0.412D+00 0.141D+01
 Coeff-En:   0.000D+00 0.100D+01
 Coeff:     -0.358D+00 0.136D+01
 Gap=     0.453 Goal=   None    Shift=    0.000
 Gap=     0.348 Goal=   None    Shift=    0.000
 RMSDP=1.49D-03 MaxDP=4.86D-02 DE=-1.03D-01 OVMax= 6.31D-02

 Cycle   3  Pass 1  IDiag  1:
 E= -338.553206330217     Delta-E=       -0.099222683549 Rises=F Damp=F
 DIIS: error= 3.54D-03 at cycle   3 NSaved=   3.
 NSaved= 3 IEnMin= 3 EnMin= -338.553206330217     IErMin= 3 ErrMin= 3.54D-03
 ErrMax= 3.54D-03  0.00D+00 EMaxC= 1.00D-01 BMatC= 1.25D-02 BMatP= 2.01D-01
 IDIUse=3 WtCom= 9.65D-01 WtEn= 3.54D-02
 Coeff-Com: -0.100D+00 0.137D+00 0.963D+00
 Coeff-En:   0.000D+00 0.000D+00 0.100D+01
 Coeff:     -0.965D-01 0.132D+00 0.964D+00
 Gap=     0.446 Goal=   None    Shift=    0.000
 Gap=     0.348 Goal=   None    Shift=    0.000
 RMSDP=4.76D-04 MaxDP=1.60D-02 DE=-9.92D-02 OVMax= 4.44D-02

 Cycle   4  Pass 1  IDiag  1:
 E= -338.559033272042     Delta-E=       -0.005826941825 Rises=F Damp=F
 DIIS: error= 2.07D-03 at cycle   4 NSaved=   4.
 NSaved= 4 IEnMin= 4 EnMin= -338.559033272042     IErMin= 4 ErrMin= 2.07D-03
 ErrMax= 2.07D-03  0.00D+00 EMaxC= 1.00D-01 BMatC= 2.45D-03 BMatP= 1.25D-02
 IDIUse=3 WtCom= 9.79D-01 WtEn= 2.07D-02
 Coeff-Com:  0.558D-02-0.318D-01 0.368D-01 0.989D+00
 Coeff-En:   0.000D+00 0.000D+00 0.000D+00 0.100D+01
 Coeff:      0.547D-02-0.312D-01 0.361D-01 0.990D+00
 Gap=     0.441 Goal=   None    Shift=    0.000
 Gap=     0.338 Goal=   None    Shift=    0.000
 RMSDP=3.14D-04 MaxDP=1.61D-02 DE=-5.83D-03 OVMax= 3.82D-02

 Cycle   5  Pass 1  IDiag  1:
 E= -338.561709189568     Delta-E=       -0.002675917526 Rises=F Damp=F
 DIIS: error= 1.97D-03 at cycle   5 NSaved=   5.
 NSaved= 5 IEnMin= 5 EnMin= -338.561709189568     IErMin= 5 ErrMin= 1.97D-03
 ErrMax= 1.97D-03  0.00D+00 EMaxC= 1.00D-01 BMatC= 1.94D-03 BMatP= 2.45D-03
 IDIUse=3 WtCom= 9.80D-01 WtEn= 1.97D-02
 Coeff-Com:  0.232D-01-0.309D-01-0.279D+00 0.351D+00 0.936D+00
 Coeff-En:   0.000D+00 0.000D+00 0.000D+00 0.000D+00 0.100D+01
 Coeff:      0.228D-01-0.302D-01-0.274D+00 0.344D+00 0.937D+00
 Gap=     0.435 Goal=   None    Shift=    0.000
 Gap=     0.338 Goal=   None    Shift=    0.000
 RMSDP=3.01D-04 MaxDP=1.16D-02 DE=-2.68D-03 OVMax= 3.49D-02

 Cycle   6  Pass 1  IDiag  1:
 E= -338.563866773685     Delta-E=       -0.002157584117 Rises=F Damp=F
 DIIS: error= 2.34D-03 at cycle   6 NSaved=   6.
 NSaved= 6 IEnMin= 6 EnMin= -338.563866773685     IErMin= 5 ErrMin= 1.97D-03
 ErrMax= 2.34D-03  0.00D+00 EMaxC= 1.00D-01 BMatC= 9.45D-04 BMatP= 1.94D-03
 IDIUse=3 WtCom= 9.80D-01 WtEn= 1.97D-02
 Coeff-Com: -0.673D-02 0.161D-01 0.269D-01-0.641D-03-0.433D+00 0.140D+01
 Coeff-En:   0.000D+00 0.000D+00 0.000D+00 0.000D+00 0.000D+00 0.100D+01
 Coeff:     -0.660D-02 0.158D-01 0.264D-01-0.628D-03-0.425D+00 0.139D+01
 Gap=     0.434 Goal=   None    Shift=    0.000
 Gap=     0.344 Goal=   None    Shift=    0.000
 RMSDP=2.83D-04 MaxDP=1.67D-02 DE=-2.16D-03 OVMax= 4.63D-02

 Cycle   7  Pass 1  IDiag  1:
 E= -338.565743243661     Delta-E=       -0.001876469977 Rises=F Damp=F
 DIIS: error= 2.21D-03 at cycle   7 NSaved=   7.
 NSaved= 7 IEnMin= 7 EnMin= -338.565743243661     IErMin= 5 ErrMin= 1.97D-03
 ErrMax= 2.21D-03  0.00D+00 EMaxC= 1.00D-01 BMatC= 1.10D-03 BMatP= 9.45D-04
 IDIUse=3 WtCom= 9.80D-01 WtEn= 1.97D-02
 Coeff-Com: -0.180D-01 0.252D-01 0.180D+00 0.113D+00-0.984D+00 0.782D+00
 Coeff-Com:  0.901D+00
 Coeff-En:   0.000D+00 0.000D+00 0.000D+00 0.000D+00 0.000D+00 0.000D+00
 Coeff-En:   0.100D+01
 Coeff:     -0.177D-01 0.247D-01 0.176D+00 0.111D+00-0.965D+00 0.767D+00
 Coeff:      0.903D+00
 Gap=     0.429 Goal=   None    Shift=    0.000
 Gap=     0.348 Goal=   None    Shift=    0.000
 RMSDP=2.30D-04 MaxDP=1.48D-02 DE=-1.88D-03 OVMax= 3.86D-02

 Cycle   8  Pass 1  IDiag  1:
 E= -338.567256214440     Delta-E=       -0.001512970779 Rises=F Damp=F
 DIIS: error= 2.24D-03 at cycle   8 NSaved=   8.
 NSaved= 8 IEnMin= 8 EnMin= -338.567256214440     IErMin= 5 ErrMin= 1.97D-03
 ErrMax= 2.24D-03  0.00D+00 EMaxC= 1.00D-01 BMatC= 9.80D-04 BMatP= 9.45D-04
 IDIUse=3 WtCom= 9.80D-01 WtEn= 1.97D-02
 Coeff-Com: -0.255D-02 0.471D-02-0.907D-02 0.188D+00-0.310D+00 0.547D+00
 Coeff-Com: -0.154D+01 0.212D+01
 Coeff-En:   0.000D+00 0.000D+00 0.000D+00 0.000D+00 0.000D+00 0.000D+00
 Coeff-En:   0.000D+00 0.100D+01
 Coeff:     -0.250D-02 0.461D-02-0.889D-02 0.184D+00-0.304D+00 0.536D+00
 Coeff:     -0.151D+01 0.210D+01
 Gap=     0.422 Goal=   None    Shift=    0.000
 Gap=     0.355 Goal=   None    Shift=    0.000
 RMSDP=3.23D-04 MaxDP=2.18D-02 DE=-1.51D-03 OVMax= 5.58D-02

 Cycle   9  Pass 1  IDiag  1:
 E= -338.569273140266     Delta-E=       -0.002016925825 Rises=F Damp=F
 DIIS: error= 1.94D-03 at cycle   9 NSaved=   9.
 NSaved= 9 IEnMin= 9 EnMin= -338.569273140266     IErMin= 9 ErrMin= 1.94D-03
 ErrMax= 1.94D-03  0.00D+00 EMaxC= 1.00D-01 BMatC= 8.81D-04 BMatP= 9.45D-04
 IDIUse=3 WtCom= 9.81D-01 WtEn= 1.94D-02
 Coeff-Com:  0.153D-01-0.146D-01-0.232D+00 0.109D+00 0.718D+00 0.657D+00
 Coeff-Com: -0.355D+01 0.108D+01 0.222D+01
 Coeff-En:   0.000D+00 0.000D+00 0.000D+00 0.000D+00 0.000D+00 0.000D+00
 Coeff-En:   0.000D+00 0.000D+00 0.100D+01
 Coeff:      0.150D-01-0.144D-01-0.227D+00 0.107D+00 0.705D+00 0.644D+00
 Coeff:     -0.348D+01 0.106D+01 0.220D+01
 Gap=     0.409 Goal=   None    Shift=    0.000
 Gap=     0.371 Goal=   None    Shift=    0.000
 RMSDP=6.41D-04 MaxDP=4.08D-02 DE=-2.02D-03 OVMax= 1.05D-01

 Cycle  10  Pass 1  IDiag  1:
 E= -338.572423034073     Delta-E=       -0.003149893807 Rises=F Damp=F
 DIIS: error= 1.35D-03 at cycle  10 NSaved=  10.
 NSaved=10 IEnMin=10 EnMin= -338.572423034073     IErMin=10 ErrMin= 1.35D-03
 ErrMax= 1.35D-03  0.00D+00 EMaxC= 1.00D-01 BMatC= 2.73D-04 BMatP= 8.81D-04
 IDIUse=3 WtCom= 9.87D-01 WtEn= 1.35D-02
 Coeff-Com: -0.183D-01 0.249D-01 0.237D+00-0.161D+00-0.497D+00-0.507D-01
 Coeff-Com:  0.350D+01-0.335D+01-0.508D+00 0.182D+01
 Coeff-En:   0.000D+00 0.000D+00 0.000D+00 0.000D+00 0.000D+00 0.000D+00
 Coeff-En:   0.000D+00 0.000D+00 0.000D+00 0.100D+01
 Coeff:     -0.180D-01 0.245D-01 0.234D+00-0.159D+00-0.490D+00-0.500D-01
 Coeff:      0.346D+01-0.331D+01-0.501D+00 0.181D+01
 Gap=     0.407 Goal=   None    Shift=    0.000
 Gap=     0.375 Goal=   None    Shift=    0.000
 RMSDP=2.16D-04 MaxDP=1.28D-02 DE=-3.15D-03 OVMax= 3.30D-02

 Cycle  11  Pass 1  IDiag  1:
 E= -338.572994395561     Delta-E=       -0.000571361488 Rises=F Damp=F
 DIIS: error= 7.98D-04 at cycle  11 NSaved=  11.
 NSaved=11 IEnMin=11 EnMin= -338.572994395561     IErMin=11 ErrMin= 7.98D-04
 ErrMax= 7.98D-04  0.00D+00 EMaxC= 1.00D-01 BMatC= 4.30D-04 BMatP= 2.73D-04
 IDIUse=3 WtCom= 9.87D-01 WtEn= 1.35D-02
 Coeff-Com: -0.187D-01 0.237D-01 0.232D+00-0.202D-01-0.939D+00 0.142D+00
 Coeff-Com:  0.253D+01-0.129D+01-0.172D+01 0.107D+01 0.999D+00
 Coeff-En:   0.000D+00 0.000D+00 0.000D+00 0.000D+00 0.000D+00 0.000D+00
 Coeff-En:   0.000D+00 0.000D+00 0.000D+00 0.000D+00 0.100D+01
 Coeff:     -0.184D-01 0.234D-01 0.229D+00-0.200D-01-0.926D+00 0.140D+00
 Coeff:      0.250D+01-0.127D+01-0.170D+01 0.105D+01 0.999D+00
 Gap=     0.400 Goal=   None    Shift=    0.000
 Gap=     0.386 Goal=   None    Shift=    0.000
 RMSDP=2.82D-04 MaxDP=1.64D-02 DE=-5.71D-04 OVMax= 4.37D-02

 Cycle  12  Pass 1  IDiag  1:
 E= -338.573508603690     Delta-E=       -0.000514208130 Rises=F Damp=F
 DIIS: error= 2.67D-04 at cycle  12 NSaved=  12.
 NSaved=12 IEnMin=12 EnMin= -338.573508603690     IErMin=12 ErrMin= 2.67D-04
 ErrMax= 2.67D-04  0.00D+00 EMaxC= 1.00D-01 BMatC= 3.91D-05 BMatP= 2.73D-04
 IDIUse=3 WtCom= 9.97D-01 WtEn= 2.67D-03
 Coeff-Com:  0.398D-02-0.538D-02-0.644D-01 0.743D-01 0.181D-01 0.106D+00
 Coeff-Com: -0.111D+01 0.107D+01 0.315D+00-0.687D+00-0.354D+00 0.163D+01
 Coeff-En:   0.000D+00 0.000D+00 0.000D+00 0.000D+00 0.000D+00 0.000D+00
 Coeff-En:   0.000D+00 0.000D+00 0.000D+00 0.000D+00 0.000D+00 0.100D+01
 Coeff:      0.396D-02-0.537D-02-0.642D-01 0.741D-01 0.181D-01 0.105D+00
 Coeff:     -0.111D+01 0.107D+01 0.314D+00-0.686D+00-0.353D+00 0.163D+01
 Gap=     0.397 Goal=   None    Shift=    0.000
 Gap=     0.391 Goal=   None    Shift=    0.000
 RMSDP=1.20D-04 MaxDP=6.19D-03 DE=-5.14D-04 OVMax= 1.74D-02

 Cycle  13  Pass 1  IDiag  1:
 E= -338.573548983726     Delta-E=       -0.000040380036 Rises=F Damp=F
 DIIS: error= 1.97D-04 at cycle  13 NSaved=  13.
 NSaved=13 IEnMin=13 EnMin= -338.573548983726     IErMin=13 ErrMin= 1.97D-04
 ErrMax= 1.97D-04  0.00D+00 EMaxC= 1.00D-01 BMatC= 2.94D-05 BMatP= 3.91D-05
 IDIUse=3 WtCom= 9.98D-01 WtEn= 1.97D-03
 Coeff-Com:  0.211D-02-0.296D-02-0.220D-01-0.181D-01 0.238D+00-0.181D+00
 Coeff-Com: -0.107D+00-0.189D-01 0.451D+00-0.241D+00-0.163D+00-0.183D+00
 Coeff-Com:  0.124D+01
 Coeff-En:   0.000D+00 0.000D+00 0.000D+00 0.000D+00 0.000D+00 0.000D+00
 Coeff-En:   0.000D+00 0.000D+00 0.000D+00 0.000D+00 0.000D+00 0.000D+00
 Coeff-En:   0.100D+01
 Coeff:      0.211D-02-0.295D-02-0.219D-01-0.181D-01 0.237D+00-0.180D+00
 Coeff:     -0.106D+00-0.189D-01 0.450D+00-0.240D+00-0.162D+00-0.183D+00
 Coeff:      0.124D+01
 Gap=     0.401 Goal=   None    Shift=    0.000
 Gap=     0.384 Goal=   None    Shift=    0.000
 RMSDP=1.49D-04 MaxDP=8.13D-03 DE=-4.04D-05 OVMax= 2.20D-02

 Cycle  14  Pass 1  IDiag  1:
 E= -338.573500941762     Delta-E=        0.000048041964 Rises=F Damp=F
 DIIS: error= 3.07D-04 at cycle  14 NSaved=  14.
 NSaved=14 IEnMin=13 EnMin= -338.573548983726     IErMin=13 ErrMin= 1.97D-04
 ErrMax= 3.07D-04  0.00D+00 EMaxC= 1.00D-01 BMatC= 7.88D-05 BMatP= 2.94D-05
 IDIUse=3 WtCom= 9.98D-01 WtEn= 1.97D-03
 Rare condition: small coef for last iteration:  0.000D+00
 Coeff-Com: -0.948D-03 0.123D-02 0.167D-01-0.183D-01-0.186D-02 0.697D-02
 Coeff-Com:  0.272D+00-0.199D+00-0.275D+00 0.268D+00-0.701D-01-0.365D+00
 Coeff-Com:  0.512D+00 0.854D+00
 Coeff-En:   0.000D+00 0.000D+00 0.000D+00 0.000D+00 0.000D+00 0.000D+00
 Coeff-En:   0.000D+00 0.000D+00 0.000D+00 0.000D+00 0.000D+00 0.000D+00
 Coeff-En:   0.000D+00 0.100D+01
 Coeff:     -0.948D-03 0.123D-02 0.167D-01-0.183D-01-0.186D-02 0.697D-02
 Coeff:      0.272D+00-0.199D+00-0.275D+00 0.268D+00-0.701D-01-0.365D+00
 Coeff:      0.512D+00 0.854D+00
 Gap=     0.399 Goal=   None    Shift=    0.000
 Gap=     0.389 Goal=   None    Shift=    0.000
 RMSDP=9.96D-05 MaxDP=5.49D-03 DE= 4.80D-05 OVMax= 1.47D-02

 Cycle  15  Pass 1  IDiag  1:
 E= -338.573564371603     Delta-E=       -0.000063429841 Rises=F Damp=F
 DIIS: error= 7.94D-05 at cycle  15 NSaved=  15.
 NSaved=15 IEnMin=15 EnMin= -338.573564371603     IErMin=15 ErrMin= 7.94D-05
 ErrMax= 7.94D-05  0.00D+00 EMaxC= 1.00D-01 BMatC= 4.97D-06 BMatP= 2.94D-05
 IDIUse=1 WtCom= 1.00D+00 WtEn= 0.00D+00
 Coeff-Com: -0.543D-03 0.780D-03 0.757D-02-0.551D-02-0.180D-01-0.118D-01
 Coeff-Com:  0.127D+00-0.129D+00 0.323D-01 0.468D-01 0.143D-01-0.131D+00
 Coeff-Com:  0.325D-01-0.392D+00 0.143D+01
 Coeff:     -0.543D-03 0.780D-03 0.757D-02-0.551D-02-0.180D-01-0.118D-01
 Coeff:      0.127D+00-0.129D+00 0.323D-01 0.468D-01 0.143D-01-0.131D+00
 Coeff:      0.325D-01-0.392D+00 0.143D+01
 Gap=     0.398 Goal=   None    Shift=    0.000
 Gap=     0.389 Goal=   None    Shift=    0.000
 RMSDP=1.50D-05 MaxDP=6.68D-04 DE=-6.34D-05 OVMax= 1.94D-03

 Cycle  16  Pass 1  IDiag  1:
 E= -338.573566924055     Delta-E=       -0.000002552451 Rises=F Damp=F
 DIIS: error= 2.75D-05 at cycle  16 NSaved=  16.
 NSaved=16 IEnMin=16 EnMin= -338.573566924055     IErMin=16 ErrMin= 2.75D-05
 ErrMax= 2.75D-05  0.00D+00 EMaxC= 1.00D-01 BMatC= 5.40D-07 BMatP= 4.97D-06
 IDIUse=1 WtCom= 1.00D+00 WtEn= 0.00D+00
 Coeff-Com:  0.774D-04-0.126D-03-0.105D-02-0.113D-04 0.543D-02 0.207D-03
 Coeff-Com: -0.118D-01 0.970D-02 0.251D-02-0.152D-01-0.357D-02 0.385D-01
 Coeff-Com:  0.128D-01-0.206D-02-0.501D+00 0.147D+01
 Coeff:      0.774D-04-0.126D-03-0.105D-02-0.113D-04 0.543D-02 0.207D-03
 Coeff:     -0.118D-01 0.970D-02 0.251D-02-0.152D-01-0.357D-02 0.385D-01
 Coeff:      0.128D-01-0.206D-02-0.501D+00 0.147D+01
 Gap=     0.398 Goal=   None    Shift=    0.000
 Gap=     0.390 Goal=   None    Shift=    0.000
 RMSDP=8.01D-06 MaxDP=4.18D-04 DE=-2.55D-06 OVMax= 1.14D-03

 Cycle  17  Pass 1  IDiag  1:
 E= -338.573567336795     Delta-E=       -0.000000412740 Rises=F Damp=F
 DIIS: error= 6.27D-06 at cycle  17 NSaved=  17.
 NSaved=17 IEnMin=17 EnMin= -338.573567336795     IErMin=17 ErrMin= 6.27D-06
 ErrMax= 6.27D-06  0.00D+00 EMaxC= 1.00D-01 BMatC= 2.10D-08 BMatP= 5.40D-07
 IDIUse=1 WtCom= 1.00D+00 WtEn= 0.00D+00
 Coeff-Com:  0.139D-04-0.183D-04-0.129D-03-0.222D-04 0.164D-02-0.119D-03
 Coeff-Com: -0.311D-02 0.521D-02-0.775D-02 0.516D-02-0.225D-02-0.661D-02
 Coeff-Com:  0.103D-01 0.381D-01-0.157D-01-0.414D+00 0.139D+01
 Coeff:      0.139D-04-0.183D-04-0.129D-03-0.222D-04 0.164D-02-0.119D-03
 Coeff:     -0.311D-02 0.521D-02-0.775D-02 0.516D-02-0.225D-02-0.661D-02
 Coeff:      0.103D-01 0.381D-01-0.157D-01-0.414D+00 0.139D+01
 Gap=     0.398 Goal=   None    Shift=    0.000
 Gap=     0.390 Goal=   None    Shift=    0.000
 RMSDP=1.76D-06 MaxDP=9.61D-05 DE=-4.13D-07 OVMax= 2.46D-04

 Cycle  18  Pass 1  IDiag  1:
 E= -338.573567351334     Delta-E=       -0.000000014539 Rises=F Damp=F
 DIIS: error= 1.34D-06 at cycle  18 NSaved=  18.
 NSaved=18 IEnMin=18 EnMin= -338.573567351334     IErMin=18 ErrMin= 1.34D-06
 ErrMax= 1.34D-06  0.00D+00 EMaxC= 1.00D-01 BMatC= 7.15D-10 BMatP= 2.10D-08
 IDIUse=1 WtCom= 1.00D+00 WtEn= 0.00D+00
 Coeff-Com: -0.247D-04 0.340D-04 0.374D-03-0.191D-03-0.123D-02 0.415D-04
 Coeff-Com:  0.589D-02-0.600D-02-0.379D-03 0.287D-02 0.104D-02-0.684D-02
 Coeff-Com:  0.691D-03 0.427D-02 0.291D-01-0.145D-01-0.490D+00 0.147D+01
 Coeff:     -0.247D-04 0.340D-04 0.374D-03-0.191D-03-0.123D-02 0.415D-04
 Coeff:      0.589D-02-0.600D-02-0.379D-03 0.287D-02 0.104D-02-0.684D-02
 Coeff:      0.691D-03 0.427D-02 0.291D-01-0.145D-01-0.490D+00 0.147D+01
 Gap=     0.398 Goal=   None    Shift=    0.000
 Gap=     0.390 Goal=   None    Shift=    0.000
 RMSDP=3.22D-07 MaxDP=1.18D-05 DE=-1.45D-08 OVMax= 2.78D-05

 Cycle  19  Pass 1  IDiag  1:
 E= -338.573567352192     Delta-E=       -0.000000000857 Rises=F Damp=F
 DIIS: error= 7.20D-07 at cycle  19 NSaved=  19.
 NSaved=19 IEnMin=19 EnMin= -338.573567352192     IErMin=19 ErrMin= 7.20D-07
 ErrMax= 7.20D-07  0.00D+00 EMaxC= 1.00D-01 BMatC= 1.78D-10 BMatP= 7.15D-10
 IDIUse=1 WtCom= 1.00D+00 WtEn= 0.00D+00
 Coeff-Com: -0.830D-05 0.104D-04 0.708D-04 0.764D-05-0.423D-03 0.399D-03
 Coeff-Com:  0.421D-03 0.449D-04-0.108D-02-0.110D-03 0.212D-03 0.275D-02
 Coeff-Com: -0.109D-02-0.480D-02-0.183D-01 0.824D-01 0.738D-01-0.959D+00
 Coeff-Com:  0.183D+01
 Coeff:     -0.830D-05 0.104D-04 0.708D-04 0.764D-05-0.423D-03 0.399D-03
 Coeff:      0.421D-03 0.449D-04-0.108D-02-0.110D-03 0.212D-03 0.275D-02
 Coeff:     -0.109D-02-0.480D-02-0.183D-01 0.824D-01 0.738D-01-0.959D+00
 Coeff:      0.183D+01
 Gap=     0.398 Goal=   None    Shift=    0.000
 Gap=     0.390 Goal=   None    Shift=    0.000
 RMSDP=1.73D-07 MaxDP=1.01D-05 DE=-8.57D-10 OVMax= 1.47D-05

 Cycle  20  Pass 1  IDiag  1:
 E= -338.573567352428     Delta-E=       -0.000000000236 Rises=F Damp=F
 DIIS: error= 5.88D-07 at cycle  20 NSaved=  20.
 NSaved=20 IEnMin=20 EnMin= -338.573567352428     IErMin=20 ErrMin= 5.88D-07
 ErrMax= 5.88D-07  0.00D+00 EMaxC= 1.00D-01 BMatC= 5.61D-11 BMatP= 1.78D-10
 IDIUse=1 WtCom= 1.00D+00 WtEn= 0.00D+00
 Coeff-Com:  0.546D-05-0.696D-05-0.629D-04 0.128D-04 0.325D-03-0.162D-03
 Coeff-Com: -0.841D-03 0.889D-03-0.938D-04 0.169D-03-0.207D-03-0.950D-03
 Coeff-Com:  0.485D-03 0.467D-02 0.155D-02-0.460D-01 0.647D-01 0.275D+00
 Coeff-Com: -0.125D+01 0.195D+01
 Coeff:      0.546D-05-0.696D-05-0.629D-04 0.128D-04 0.325D-03-0.162D-03
 Coeff:     -0.841D-03 0.889D-03-0.938D-04 0.169D-03-0.207D-03-0.950D-03
 Coeff:      0.485D-03 0.467D-02 0.155D-02-0.460D-01 0.647D-01 0.275D+00
 Coeff:     -0.125D+01 0.195D+01
 Gap=     0.398 Goal=   None    Shift=    0.000
 Gap=     0.390 Goal=   None    Shift=    0.000
 RMSDP=1.34D-07 MaxDP=6.70D-06 DE=-2.36D-10 OVMax= 1.42D-05

 Cycle  21  Pass 1  IDiag  1:
 E= -338.573567352533     Delta-E=       -0.000000000105 Rises=F Damp=F
 DIIS: error= 1.66D-07 at cycle  21 NSaved=  20.
 NSaved=20 IEnMin=20 EnMin= -338.573567352533     IErMin=20 ErrMin= 1.66D-07
 ErrMax= 1.66D-07  0.00D+00 EMaxC= 1.00D-01 BMatC= 7.06D-12 BMatP= 5.61D-11
 IDIUse=1 WtCom= 1.00D+00 WtEn= 0.00D+00
 Coeff-Com: -0.125D-06 0.735D-05 0.253D-05-0.668D-04 0.308D-04 0.207D-03
 Coeff-Com: -0.303D-03 0.100D-03 0.612D-05 0.220D-04-0.594D-04-0.147D-03
 Coeff-Com: -0.780D-03 0.307D-02 0.186D-02-0.428D-01 0.904D-01 0.128D+00
 Coeff-Com: -0.845D+00 0.167D+01
 Coeff:     -0.125D-06 0.735D-05 0.253D-05-0.668D-04 0.308D-04 0.207D-03
 Coeff:     -0.303D-03 0.100D-03 0.612D-05 0.220D-04-0.594D-04-0.147D-03
 Coeff:     -0.780D-03 0.307D-02 0.186D-02-0.428D-01 0.904D-01 0.128D+00
 Coeff:     -0.845D+00 0.167D+01
 Gap=     0.398 Goal=   None    Shift=    0.000
 Gap=     0.390 Goal=   None    Shift=    0.000
 RMSDP=5.67D-08 MaxDP=2.94D-06 DE=-1.05D-10 OVMax= 5.08D-06

 Cycle  22  Pass 1  IDiag  1:
 E= -338.573567352543     Delta-E=       -0.000000000010 Rises=F Damp=F
 DIIS: error= 1.03D-07 at cycle  22 NSaved=  20.
 NSaved=20 IEnMin=20 EnMin= -338.573567352543     IErMin=20 ErrMin= 1.03D-07
 ErrMax= 1.03D-07  0.00D+00 EMaxC= 1.00D-01 BMatC= 3.92D-12 BMatP= 7.06D-12
 IDIUse=1 WtCom= 1.00D+00 WtEn= 0.00D+00
 Coeff-Com: -0.284D-05 0.159D-05 0.336D-05 0.507D-05-0.770D-04 0.668D-04
 Coeff-Com:  0.549D-04-0.809D-04 0.285D-04 0.170D-03-0.101D-03-0.166D-03
 Coeff-Com: -0.105D-02 0.405D-02 0.102D-01-0.699D-01 0.104D+00 0.851D-01
 Coeff-Com: -0.666D+00 0.153D+01
 Coeff:     -0.284D-05 0.159D-05 0.336D-05 0.507D-05-0.770D-04 0.668D-04
 Coeff:      0.549D-04-0.809D-04 0.285D-04 0.170D-03-0.101D-03-0.166D-03
 Coeff:     -0.105D-02 0.405D-02 0.102D-01-0.699D-01 0.104D+00 0.851D-01
 Coeff:     -0.666D+00 0.153D+01
 Gap=     0.398 Goal=   None    Shift=    0.000
 Gap=     0.390 Goal=   None    Shift=    0.000
 RMSDP=2.75D-08 MaxDP=1.38D-06 DE=-1.00D-11 OVMax= 3.76D-06

 Cycle  23  Pass 1  IDiag  1:
 E= -338.573567352546     Delta-E=       -0.000000000003 Rises=F Damp=F
 DIIS: error= 2.17D-08 at cycle  23 NSaved=  20.
 NSaved=20 IEnMin=20 EnMin= -338.573567352546     IErMin=20 ErrMin= 2.17D-08
 ErrMax= 2.17D-08  0.00D+00 EMaxC= 1.00D-01 BMatC= 1.12D-13 BMatP= 3.92D-12
 IDIUse=1 WtCom= 1.00D+00 WtEn= 0.00D+00
 Coeff-Com: -0.445D-06 0.419D-05-0.378D-05 0.140D-05 0.210D-04-0.340D-04
 Coeff-Com:  0.199D-04-0.132D-04-0.358D-04 0.269D-04 0.742D-04 0.192D-03
 Coeff-Com: -0.162D-02 0.189D-03 0.181D-01-0.537D-01 0.612D-01 0.751D-01
 Coeff-Com: -0.583D+00 0.148D+01
 Coeff:     -0.445D-06 0.419D-05-0.378D-05 0.140D-05 0.210D-04-0.340D-04
 Coeff:      0.199D-04-0.132D-04-0.358D-04 0.269D-04 0.742D-04 0.192D-03
 Coeff:     -0.162D-02 0.189D-03 0.181D-01-0.537D-01 0.612D-01 0.751D-01
 Coeff:     -0.583D+00 0.148D+01
 Gap=     0.398 Goal=   None    Shift=    0.000
 Gap=     0.390 Goal=   None    Shift=    0.000
 RMSDP=3.41D-09 MaxDP=1.78D-07 DE=-2.84D-12 OVMax= 2.24D-07

 SCF Done:  E(UHF) =  -338.573567353     A.U. after   23 cycles
            NFock= 23  Conv=0.34D-08     -V/T= 2.0014
 <Sx>= 0.0000 <Sy>= 0.0000 <Sz>= 0.5000 <S**2>= 0.7623 S= 0.5062
 <L.S>= 0.000000000000E+00
 KE= 3.381085854442D+02 PE=-1.135523779202D+03 EE= 2.965247518707D+02
 Annihilation of the first spin contaminant:
 S**2 before annihilation     0.7623,   after     0.7501
 Leave Link  502 at Wed Feb 23 15:23:21 2022, MaxMem=  2684354560 cpu:              21.5 elap:               1.9
 (Enter /usr/site/hpc/x86_64/glibc-2.17/haswell/gaussian/g16_a.03/pgi-16.5/g16/l508.exe)
 QCSCF skips out because SCF is already converged.
 Leave Link  508 at Wed Feb 23 15:23:21 2022, MaxMem=  2684354560 cpu:               0.5 elap:               0.0
 (Enter /usr/site/hpc/x86_64/glibc-2.17/haswell/gaussian/g16_a.03/pgi-16.5/g16/l601.exe)
 Copying SCF densities to generalized density rwf, IOpCl= 1 IROHF=0.

 **********************************************************************

            Population analysis using the SCF density.

 **********************************************************************

 Orbital symmetries:
 Alpha Orbitals:
       Occupied  (A') (A') (A') (A') (A') (A') (A') (A') (A') (A')
                 (A') (A') (A') (A") (A') (A') (A") (A") (A') (A')
                 (A")
       Virtual   (A') (A') (A') (A") (A') (A') (A") (A') (A') (A')
                 (A") (A') (A') (A") (A") (A') (A') (A') (A') (A")
                 (A') (A') (A') (A") (A') (A') (A") (A') (A') (A')
                 (A") (A') (A') (A") (A') (A') (A') (A") (A') (A')
                 (A') (A') (A') (A') (A') (A") (A") (A") (A') (A')
                 (A") (A') (A") (A") (A') (A") (A') (A') (A") (A')
                 (A') (A') (A') (A') (A") (A') (A") (A") (A') (A")
                 (A') (A') (A') (A") (A') (A') (A") (A') (A') (A")
                 (A") (A') (A') (A') (A') (A') (A') (A') (A') (A')
                 (A') (A') (A") (A') (A") (A') (A") (A") (A') (A")
                 (A") (A') (A") (A') (A") (A') (A') (A') (A') (A')
                 (A') (A')
 Beta  Orbitals:
       Occupied  (A') (A') (A') (A') (A') (A') (A') (A') (A') (A')
                 (A') (A') (A") (A') (A') (A") (A") (A') (A") (A')
       Virtual   (A') (A') (A') (A") (A') (A') (A') (A") (A') (A')
                 (A') (A") (A') (A') (A") (A") (A') (A') (A') (A')
                 (A") (A') (A') (A') (A") (A') (A") (A') (A') (A')
                 (A') (A") (A') (A") (A') (A') (A') (A") (A') (A')
                 (A') (A') (A') (A') (A') (A') (A") (A") (A") (A')
                 (A') (A") (A') (A") (A") (A') (A") (A') (A') (A")
                 (A') (A') (A') (A') (A') (A") (A') (A") (A") (A')
                 (A") (A') (A') (A") (A') (A') (A') (A") (A') (A')
                 (A") (A") (A') (A') (A') (A') (A') (A') (A') (A')
                 (A') (A') (A') (A") (A") (A") (A') (A") (A') (A')
                 (A") (A") (A') (A") (A') (A") (A') (A') (A') (A')
                 (A') (A') (A')
 The electronic state is 2-A'.
 Alpha  occ. eigenvalues --  -20.49794 -20.40586 -20.35590 -20.34158 -11.22724
 Alpha  occ. eigenvalues --   -1.32798  -1.18296  -1.16968  -1.11892  -0.61648
 Alpha  occ. eigenvalues --   -0.55508  -0.54145  -0.48995  -0.48906  -0.42737
 Alpha  occ. eigenvalues --   -0.40488  -0.34128  -0.33261  -0.29757  -0.25361
 Alpha  occ. eigenvalues --   -0.24403
 Alpha virt. eigenvalues --    0.15376   0.18084   0.22195   0.22654   0.23787
 Alpha virt. eigenvalues --    0.26353   0.33147   0.34274   0.34526   0.36311
 Alpha virt. eigenvalues --    0.36846   0.38284   0.39407   0.40888   0.41892
 Alpha virt. eigenvalues --    0.42052   0.44067   0.45549   0.47488   0.48672
 Alpha virt. eigenvalues --    0.49936   0.53139   0.54437   0.55899   0.56529
 Alpha virt. eigenvalues --    0.62228   0.62963   0.63918   0.74507   0.75642
 Alpha virt. eigenvalues --    0.80308   0.81817   0.83462   0.83548   0.89678
 Alpha virt. eigenvalues --    0.92606   0.95629   0.97257   0.97946   1.03511
 Alpha virt. eigenvalues --    1.04567   1.10920   1.12276   1.14032   1.21929
 Alpha virt. eigenvalues --    1.23619   1.26138   1.29554   1.31440   1.31942
 Alpha virt. eigenvalues --    1.33298   1.34251   1.36103   1.41279   1.42671
 Alpha virt. eigenvalues --    1.43591   1.45645   1.49401   1.51905   1.53862
 Alpha virt. eigenvalues --    1.63431   1.66549   1.68635   1.68689   1.73224
 Alpha virt. eigenvalues --    1.75173   1.77899   1.89575   1.92528   1.95611
 Alpha virt. eigenvalues --    2.00047   2.09785   2.15529   2.17535   2.19461
 Alpha virt. eigenvalues --    2.23594   2.25405   2.28095   2.34379   2.36059
 Alpha virt. eigenvalues --    2.37905   2.54768   2.65872   2.67778   2.74883
 Alpha virt. eigenvalues --    2.80663   2.94986   3.14228   3.18798   3.20787
 Alpha virt. eigenvalues --    3.29058   3.44640   3.72319   3.80598   3.83312
 Alpha virt. eigenvalues --    3.83773   3.84859   3.88796   3.89786   3.90204
 Alpha virt. eigenvalues --    3.93384   3.93541   3.96943   4.00712   4.02369
 Alpha virt. eigenvalues --    4.08396   4.12191   4.22595   4.28329   4.37521
 Alpha virt. eigenvalues --    4.40430   4.59226
  Beta  occ. eigenvalues --  -20.45695 -20.40585 -20.35449 -20.33497 -11.22952
  Beta  occ. eigenvalues --   -1.25746  -1.18138  -1.12322  -1.07681  -0.57839
  Beta  occ. eigenvalues --   -0.54207  -0.48092  -0.46547  -0.43874  -0.42486
  Beta  occ. eigenvalues --   -0.34055  -0.30802  -0.26905  -0.23904  -0.23650
  Beta virt. eigenvalues --    0.15341   0.18082   0.21754   0.22662   0.23487
  Beta virt. eigenvalues --    0.24428   0.27088   0.33156   0.34341   0.35392
  Beta virt. eigenvalues --    0.36469   0.37004   0.38814   0.39422   0.40822
  Beta virt. eigenvalues --    0.41791   0.42447   0.44305   0.46019   0.47586
  Beta virt. eigenvalues --    0.48993   0.50407   0.53869   0.54894   0.55929
  Beta virt. eigenvalues --    0.57854   0.62985   0.63058   0.64133   0.74867
  Beta virt. eigenvalues --    0.76355   0.80394   0.82076   0.83825   0.84451
  Beta virt. eigenvalues --    0.89768   0.93587   0.97068   0.98021   0.99530
  Beta virt. eigenvalues --    1.03905   1.04863   1.11251   1.12821   1.15085
  Beta virt. eigenvalues --    1.22030   1.24975   1.26207   1.30074   1.32036
  Beta virt. eigenvalues --    1.32940   1.33379   1.36606   1.36909   1.41542
  Beta virt. eigenvalues --    1.43356   1.44056   1.49079   1.50354   1.52186
  Beta virt. eigenvalues --    1.54713   1.64394   1.67038   1.69318   1.69369
  Beta virt. eigenvalues --    1.73535   1.75558   1.79330   1.89680   1.94345
  Beta virt. eigenvalues --    1.95667   2.05472   2.10516   2.17535   2.18878
  Beta virt. eigenvalues --    2.20895   2.23796   2.25395   2.28490   2.34660
  Beta virt. eigenvalues --    2.36031   2.37878   2.55145   2.65989   2.68383
  Beta virt. eigenvalues --    2.75037   2.81151   2.95053   3.14593   3.20694
  Beta virt. eigenvalues --    3.21016   3.30153   3.45243   3.81108   3.84998
  Beta virt. eigenvalues --    3.85436   3.88942   3.89362   3.89970   3.90306
  Beta virt. eigenvalues --    3.90797   3.93727   3.94693   3.97307   4.01787
  Beta virt. eigenvalues --    4.02749   4.10774   4.14609   4.23438   4.28805
  Beta virt. eigenvalues --    4.38198   4.41615   4.59292
          Condensed to atoms (all electrons):
               1          2          3          4          5          6
     1  C    4.042986   0.096762   0.364343   0.366875  -0.002058  -0.022386
     2  O    0.096762   8.470099  -0.081046  -0.035600  -0.000992   0.012569
     3  O    0.364343  -0.081046   8.643725  -0.070023  -0.000369   0.002191
     4  O    0.366875  -0.035600  -0.070023   8.580192  -0.047032   0.036658
     5  O   -0.002058  -0.000992  -0.000369  -0.047032   7.909190   0.250184
     6  H   -0.022386   0.012569   0.002191   0.036658   0.250184   0.449458
     7  H   -0.004070  -0.000313  -0.000040  -0.004217   0.339861  -0.037819
               7
     1  C   -0.004070
     2  O   -0.000313
     3  O   -0.000040
     4  O   -0.004217
     5  O    0.339861
     6  H   -0.037819
     7  H    0.577394
          Atomic-Atomic Spin Densities.
               1          2          3          4          5          6
     1  C   -0.074461  -0.072413  -0.001747   0.004664  -0.000191  -0.000802
     2  O   -0.072413   1.144765  -0.043838  -0.013330   0.001035   0.004301
     3  O   -0.001747  -0.043838   0.153806  -0.005174   0.000058  -0.000248
     4  O    0.004664  -0.013330  -0.005174   0.035473   0.001104  -0.002031
     5  O   -0.000191   0.001035   0.000058   0.001104  -0.000936   0.000161
     6  H   -0.000802   0.004301  -0.000248  -0.002031   0.000161   0.001037
     7  H    0.000040  -0.001363   0.000006  -0.000049   0.000368  -0.000393
               7
     1  C    0.000040
     2  O   -0.001363
     3  O    0.000006
     4  O   -0.000049
     5  O    0.000368
     6  H   -0.000393
     7  H    0.000002
 Mulliken charges and spin densities:
               1          2
     1  C    1.157548  -0.144910
     2  O   -0.461480   1.019156
     3  O   -0.858782   0.102864
     4  O   -0.826853   0.020656
     5  O   -0.448783   0.001598
     6  H    0.309146   0.002025
     7  H    0.129203  -0.001389
 Sum of Mulliken charges =  -1.00000   1.00000
 Mulliken charges and spin densities with hydrogens summed into heavy atoms:
               1          2
     1  C    1.157548  -0.144910
     2  O   -0.461480   1.019156
     3  O   -0.858782   0.102864
     4  O   -0.826853   0.020656
     5  O   -0.010434   0.002234
 Electronic spatial extent (au):  <R**2>=            534.9225
 Charge=             -1.0000 electrons
 Dipole moment (field-independent basis, Debye):
    X=              2.3637    Y=             -2.1416    Z=              0.0000  Tot=              3.1896
 Quadrupole moment (field-independent basis, Debye-Ang):
   XX=            -34.7561   YY=            -54.8354   ZZ=            -30.7109
   XY=             -4.1840   XZ=             -0.0000   YZ=             -0.0000
 Traceless Quadrupole moment (field-independent basis, Debye-Ang):
   XX=              5.3447   YY=            -14.7346   ZZ=              9.3899
   XY=             -4.1840   XZ=             -0.0000   YZ=             -0.0000
 Octapole moment (field-independent basis, Debye-Ang**2):
  XXX=              2.6334  YYY=              2.8134  ZZZ=              0.0000  XYY=             10.7747
  XXY=             -6.2653  XXZ=             -0.0000  XZZ=              0.6882  YZZ=              0.4539
  YYZ=              0.0000  XYZ=              0.0000
 Hexadecapole moment (field-independent basis, Debye-Ang**3):
 XXXX=           -130.2487 YYYY=           -681.8629 ZZZZ=            -28.6381 XXXY=            -20.0178
 XXXZ=             -0.0000 YYYX=            -55.4175 YYYZ=             -0.0000 ZZZX=             -0.0000
 ZZZY=             -0.0000 XXYY=            -98.0241 XXZZ=            -26.4780 YYZZ=            -93.8741
 XXYZ=             -0.0000 YYXZ=             -0.0000 ZZXY=             -7.4445
 N-N= 1.623168745348D+02 E-N=-1.135523779021D+03  KE= 3.381085854442D+02
 Symmetry A'   KE= 3.212654048713D+02
 Symmetry A"   KE= 1.684318057281D+01
 Symmetry A'   SP= 1.000000000000D+00
 Symmetry A"   SP= 2.977317838723D-15
                          Isotropic Fermi Contact Couplings
        Atom                 a.u.       MegaHertz       Gauss      10(-4) cm-1
     1  C(13)             -0.04305     -48.39494     -17.26852     -16.14282
     2  O(17)              0.28220    -171.06668     -61.04084     -57.06170
     3  O(17)              0.06111     -37.04596     -13.21892     -12.35720
     4  O(17)              0.00472      -2.86264      -1.02146      -0.95487
     5  O(17)             -0.00169       1.02206       0.36470       0.34092
     6  H(1)               0.00021       0.96026       0.34264       0.32031
     7  H(1)              -0.00007      -0.32616      -0.11638      -0.10879
 --------------------------------------------------------
       Center         ----  Spin Dipole Couplings  ----
                      3XX-RR        3YY-RR        3ZZ-RR
 --------------------------------------------------------
     1   Atom        0.047704     -0.001058     -0.046646
     2   Atom       -1.341004      3.073047     -1.732043
     3   Atom        0.366838     -0.103021     -0.263817
     4   Atom        0.125781     -0.018822     -0.106960
     5   Atom        0.005503      0.000325     -0.005829
     6   Atom        0.003810      0.004164     -0.007974
     7   Atom       -0.006238      0.014094     -0.007856
 --------------------------------------------------------
                        XY            XZ            YZ
 --------------------------------------------------------
     1   Atom       -0.022792     -0.000000      0.000000
     2   Atom        1.581199      0.000000     -0.000000
     3   Atom       -0.340123      0.000000      0.000000
     4   Atom       -0.094050      0.000000      0.000000
     5   Atom        0.009844      0.000000      0.000000
     6   Atom        0.011026      0.000000      0.000000
     7   Atom        0.004359      0.000000      0.000000
 --------------------------------------------------------


 ---------------------------------------------------------------------------------
              Anisotropic Spin Dipole Couplings in Principal Axis System
 ---------------------------------------------------------------------------------

       Atom             a.u.   MegaHertz   Gauss  10(-4) cm-1        Axes

              Baa    -0.0466    -6.259    -2.234    -2.088  0.0000  0.0000  1.0000
     1 C(13)  Bbb    -0.0101    -1.349    -0.481    -0.450  0.3671  0.9302 -0.0000
              Bcc     0.0567     7.608     2.715     2.538  0.9302 -0.3671  0.0000
 
              Baa    -1.8490   133.790    47.740    44.627  0.9521 -0.3059  0.0000
     2 O(17)  Bbb    -1.7320   125.329    44.721    41.805  0.0000  0.0000  1.0000
              Bcc     3.5810  -259.119   -92.460   -86.433  0.3059  0.9521 -0.0000
 
              Baa    -0.2815    20.366     7.267     6.794  0.4646  0.8855 -0.0000
     3 O(17)  Bbb    -0.2638    19.090     6.812     6.368  0.0000  0.0000  1.0000
              Bcc     0.5453   -39.456   -14.079   -13.161  0.8855 -0.4646 -0.0000
 
              Baa    -0.1070     7.740     2.762     2.582  0.0000  0.0000  1.0000
     4 O(17)  Bbb    -0.0651     4.714     1.682     1.572  0.4419  0.8971 -0.0000
              Bcc     0.1721   -12.454    -4.444    -4.154  0.8971 -0.4419 -0.0000
 
              Baa    -0.0073     0.526     0.188     0.175 -0.6106  0.7919 -0.0000
     5 O(17)  Bbb    -0.0058     0.422     0.150     0.141  0.0000  0.0000  1.0000
              Bcc     0.0131    -0.947    -0.338    -0.316  0.7919  0.6106 -0.0000
 
              Baa    -0.0080    -4.255    -1.518    -1.419  0.0000  0.0000  1.0000
     6 H(1)   Bbb    -0.0070    -3.756    -1.340    -1.253  0.7127 -0.7014 -0.0000
              Bcc     0.0150     8.011     2.859     2.672  0.7014  0.7127 -0.0000
 
              Baa    -0.0079    -4.192    -1.496    -1.398  0.0000  0.0000  1.0000
     7 H(1)   Bbb    -0.0071    -3.806    -1.358    -1.269  0.9796 -0.2011  0.0000
              Bcc     0.0150     7.998     2.854     2.668  0.2011  0.9796 -0.0000
 

 ---------------------------------------------------------------------------------

 No NMR shielding tensors so no spin-rotation constants.
 Leave Link  601 at Wed Feb 23 15:23:22 2022, MaxMem=  2684354560 cpu:               6.9 elap:               0.4
 (Enter /usr/site/hpc/x86_64/glibc-2.17/haswell/gaussian/g16_a.03/pgi-16.5/g16/l801.exe)
 Range of M.O.s used for correlation:     1   133
 NBasis=   133 NAE=    21 NBE=    20 NFC=     0 NFV=     0
 NROrb=    133 NOA=    21 NOB=    20 NVA=   112 NVB=   113

 **** Warning!!: The largest alpha MO coefficient is  0.10584156D+02


 **** Warning!!: The largest beta MO coefficient is  0.10746355D+02

 Leave Link  801 at Wed Feb 23 15:23:22 2022, MaxMem=  2684354560 cpu:               0.7 elap:               0.1
 (Enter /usr/site/hpc/x86_64/glibc-2.17/haswell/gaussian/g16_a.03/pgi-16.5/g16/l914.exe)
 UHF ground state
 Doing stability rather than CIS.
 Keep R1 and R2 ints in memory in symmetry-blocked form, NReq=61458855.
 FoFCou: FMM=F IPFlag=           0 FMFlag=           0 FMFlg1=           0
         NFxFlg=           0 DoJE=F BraDBF=F KetDBF=F FulRan=T
         wScrn=  0.000000 ICntrl=       600 IOpCl=  0 I1Cent=           0 NGrid=           0
         NMat0=    1 NMatS0=   8911 NMatT0=    0 NMatD0=    1 NMtDS0=    0 NMtDT0=    0
 Petite list used in FoFCou.
 MDV=  2684354560 DFT=F DoStab=T Mixed=F DoRPA=F DoScal=F NonHer=F
 Making orbital integer symmetry assigments:
 Orbital symmetries:
 Alpha Orbitals:
       Occupied  (A') (A') (A') (A') (A') (A') (A') (A') (A') (A')
                 (A') (A') (A') (A") (A') (A') (A") (A") (A') (A')
                 (A")
       Virtual   (A') (A') (A') (A") (A') (A') (A") (A') (A') (A')
                 (A") (A') (A') (A") (A") (A') (A') (A') (A') (A")
                 (A') (A') (A') (A") (A') (A') (A") (A') (A') (A')
                 (A") (A') (A') (A") (A') (A') (A') (A") (A') (A')
                 (A') (A') (A') (A') (A') (A") (A") (A") (A') (A')
                 (A") (A') (A") (A") (A') (A") (A') (A') (A") (A')
                 (A') (A') (A') (A') (A") (A') (A") (A") (A') (A")
                 (A') (A') (A') (A") (A') (A') (A") (A') (A') (A")
                 (A") (A') (A') (A') (A') (A') (A') (A') (A') (A')
                 (A') (A') (A") (A') (A") (A') (A") (A") (A') (A")
                 (A") (A') (A") (A') (A") (A') (A') (A') (A') (A')
                 (A') (A')
 Beta  Orbitals:
       Occupied  (A') (A') (A') (A') (A') (A') (A') (A') (A') (A')
                 (A') (A') (A") (A') (A') (A") (A") (A') (A") (A')
       Virtual   (A') (A') (A') (A") (A') (A') (A') (A") (A') (A')
                 (A') (A") (A') (A') (A") (A") (A') (A') (A') (A')
                 (A") (A') (A') (A') (A") (A') (A") (A') (A') (A')
                 (A') (A") (A') (A") (A') (A') (A') (A") (A') (A')
                 (A') (A') (A') (A') (A') (A') (A") (A") (A") (A')
                 (A') (A") (A') (A") (A") (A') (A") (A') (A') (A")
                 (A') (A') (A') (A') (A') (A") (A') (A") (A") (A')
                 (A") (A') (A') (A") (A') (A') (A') (A") (A') (A')
                 (A") (A") (A') (A') (A') (A') (A') (A') (A') (A')
                 (A') (A') (A') (A") (A") (A") (A') (A") (A') (A')
                 (A") (A") (A') (A") (A') (A") (A') (A') (A') (A')
                 (A') (A') (A')
    12 initial guesses have been made.
 Convergence on wavefunction:    0.001000000000000
 Davidson Disk Diagonalization:  ConvIn= 1.00D-03 SkipCon=T Conv= 1.00D-03.
 Max sub-space:  2000 roots to seek:    12 dimension of matrix:         4612
 Iteration     1 Dimension    12 NMult     0 NNew     12
 CISAX will form    12 AO SS matrices at one time.
 NMat=    12 NSing=    12 JSym2X= 2.
 New state      1 was old state      4
 Excitation Energies [eV] at current iteration:
 Root      1 :     3.844409512071979
 Root      2 :     5.806930755873624
 Root      3 :     6.357495139320702
 Root      4 :     6.858472983742995
 Root      5 :     7.882396648232951
 Root      6 :     7.944328017703400
 Root      7 :     8.060002230546521
 Root      8 :     8.286887969126212
 Root      9 :     8.343309291894696
 Root     10 :     8.422984692617197
 Root     11 :     8.476509455183445
 Root     12 :    11.336056961809910
 Iteration     2 Dimension    24 NMult    12 NNew     12
 CISAX will form    12 AO SS matrices at one time.
 NMat=    12 NSing=    12 JSym2X= 2.
 Root      1 not converged, maximum delta is    0.257925880398743
 Excitation Energies [eV] at current iteration:
 Root      1 :     0.849156557379247   Change is   -2.995252954692731
 Root      2 :     3.874312153866539   Change is   -1.932618602007084
 Root      3 :     5.424512157606795   Change is   -0.932982981713906
 Root      4 :     5.811906354390127   Change is   -1.046566629352867
 Root      5 :     7.421562149521720   Change is   -0.460834498711230
 Root      6 :     7.535843639014351   Change is   -0.408484378689050
 Root      7 :     7.844120748620069   Change is   -0.215881481926452
 Root      8 :     8.001514755949454   Change is   -0.285373213176758
 Root      9 :     8.154842668164628   Change is   -0.268142024452569
 Root     10 :     8.166344250266162   Change is   -0.176965041628534
 Root     11 :     8.269904362478778   Change is   -0.206605092704667
 Root     12 :     8.976948955773736   Change is   -2.359108006036174
 Iteration     3 Dimension    27 NMult    24 NNew      3
 CISAX will form     3 AO SS matrices at one time.
 NMat=     3 NSing=     3 JSym2X= 2.
 Root      1 not converged, maximum delta is    0.014242758614944
 Excitation Energies [eV] at current iteration:
 Root      1 :     0.729341203025399   Change is   -0.119815354353848
 Root      2 :     3.036952037207293   Change is   -0.837360116659246
 Root      3 :     5.137866188702506   Change is   -0.286645968904290
 Iteration     4 Dimension    30 NMult    27 NNew      3
 CISAX will form     3 AO SS matrices at one time.
 NMat=     3 NSing=     3 JSym2X= 2.
 Root      1 not converged, maximum delta is    0.005499882403112
 Excitation Energies [eV] at current iteration:
 Root      1 :     0.720597550178477   Change is   -0.008743652846923
 Root      2 :     2.920444334959358   Change is   -0.116507702247935
 Root      3 :     5.091089591493950   Change is   -0.046776597208556
 Iteration     5 Dimension    33 NMult    30 NNew      3
 CISAX will form     3 AO SS matrices at one time.
 NMat=     3 NSing=     3 JSym2X= 2.
 Root      1 not converged, maximum delta is    0.002844219544248
 Excitation Energies [eV] at current iteration:
 Root      1 :     0.719376076200154   Change is   -0.001221473978323
 Root      2 :     2.880183244926362   Change is   -0.040261090032996
 Root      3 :     5.078445659001549   Change is   -0.012643932492401
 Iteration     6 Dimension    36 NMult    33 NNew      3
 CISAX will form     3 AO SS matrices at one time.
 NMat=     3 NSing=     3 JSym2X= 2.
 Root      1 has converged.
 Excitation Energies [eV] at current iteration:
 Root      1 :     0.719255691434090   Change is   -0.000120384766064
 Root      2 :     2.863241958617865   Change is   -0.016941286308498
 Root      3 :     5.074346050298234   Change is   -0.004099608703315
 Convergence achieved on expansion vectors.
 ***********************************************************************
 Stability analysis using <AA,BB:AA,BB> singles matrix:
 ***********************************************************************
 1PDM for each excited state written to RWF  633
 Ground to excited state transition densities written to RWF  633

 Eigenvectors of the stability matrix:
 
 Eigenvector   1:  2.049-A"   Eigenvalue= 0.0264322  <S**2>=0.799
     13B -> 23B        0.20087
     13B -> 25B       -0.20782
     13B -> 26B        0.27258
     13B -> 27B       -0.19486
     17B -> 23B        0.35981
     17B -> 25B       -0.35157
     17B -> 26B        0.46484
     17B -> 27B       -0.32060
     17B -> 30B       -0.14743
     17B -> 33B        0.10932
     17B -> 46B       -0.10400
     19B -> 23B       -0.12352
     19B -> 26B       -0.14499
 The wavefunction is stable under the perturbations considered.
 Leave Link  914 at Wed Feb 23 15:23:23 2022, MaxMem=  2684354560 cpu:              22.3 elap:               1.1
 (Enter /usr/site/hpc/x86_64/glibc-2.17/haswell/gaussian/g16_a.03/pgi-16.5/g16/l508.exe)
 The wavefunction is already stable.
 Leave Link  508 at Wed Feb 23 15:23:23 2022, MaxMem=  2684354560 cpu:               0.5 elap:               0.0
 (Enter /usr/site/hpc/x86_64/glibc-2.17/haswell/gaussian/g16_a.03/pgi-16.5/g16/l601.exe)
 Copying SCF densities to generalized density rwf, IOpCl= 1 IROHF=0.

 **********************************************************************

            Population analysis using the SCF density.

 **********************************************************************

 Orbital symmetries:
 Alpha Orbitals:
       Occupied  (A') (A') (A') (A') (A') (A') (A') (A') (A') (A')
                 (A') (A') (A') (A") (A') (A') (A") (A") (A') (A')
                 (A")
       Virtual   (A') (A') (A') (A") (A') (A') (A") (A') (A') (A')
                 (A") (A') (A') (A") (A") (A') (A') (A') (A') (A")
                 (A') (A') (A') (A") (A') (A') (A") (A') (A') (A')
                 (A") (A') (A') (A") (A') (A') (A') (A") (A') (A')
                 (A') (A') (A') (A') (A') (A") (A") (A") (A') (A')
                 (A") (A') (A") (A") (A') (A") (A') (A') (A") (A')
                 (A') (A') (A') (A') (A") (A') (A") (A") (A') (A")
                 (A') (A') (A') (A") (A') (A') (A") (A') (A') (A")
                 (A") (A') (A') (A') (A') (A') (A') (A') (A') (A')
                 (A') (A') (A") (A') (A") (A') (A") (A") (A') (A")
                 (A") (A') (A") (A') (A") (A') (A') (A') (A') (A')
                 (A') (A')
 Beta  Orbitals:
       Occupied  (A') (A') (A') (A') (A') (A') (A') (A') (A') (A')
                 (A') (A') (A") (A') (A') (A") (A") (A') (A") (A')
       Virtual   (A') (A') (A') (A") (A') (A') (A') (A") (A') (A')
                 (A') (A") (A') (A') (A") (A") (A') (A') (A') (A')
                 (A") (A') (A') (A') (A") (A') (A") (A') (A') (A')
                 (A') (A") (A') (A") (A') (A') (A') (A") (A') (A')
                 (A') (A') (A') (A') (A') (A') (A") (A") (A") (A')
                 (A') (A") (A') (A") (A") (A') (A") (A') (A') (A")
                 (A') (A') (A') (A') (A') (A") (A') (A") (A") (A')
                 (A") (A') (A') (A") (A') (A') (A') (A") (A') (A')
                 (A") (A") (A') (A') (A') (A') (A') (A') (A') (A')
                 (A') (A') (A') (A") (A") (A") (A') (A") (A') (A')
                 (A") (A") (A') (A") (A') (A") (A') (A') (A') (A')
                 (A') (A') (A')
 The electronic state is 2-A'.
 Alpha  occ. eigenvalues --  -20.49794 -20.40586 -20.35590 -20.34158 -11.22724
 Alpha  occ. eigenvalues --   -1.32798  -1.18296  -1.16968  -1.11892  -0.61648
 Alpha  occ. eigenvalues --   -0.55508  -0.54145  -0.48995  -0.48906  -0.42737
 Alpha  occ. eigenvalues --   -0.40488  -0.34128  -0.33261  -0.29757  -0.25361
 Alpha  occ. eigenvalues --   -0.24403
 Alpha virt. eigenvalues --    0.15376   0.18084   0.22195   0.22654   0.23787
 Alpha virt. eigenvalues --    0.26353   0.33147   0.34274   0.34526   0.36311
 Alpha virt. eigenvalues --    0.36846   0.38284   0.39407   0.40888   0.41892
 Alpha virt. eigenvalues --    0.42052   0.44067   0.45549   0.47488   0.48672
 Alpha virt. eigenvalues --    0.49936   0.53139   0.54437   0.55899   0.56529
 Alpha virt. eigenvalues --    0.62228   0.62963   0.63918   0.74507   0.75642
 Alpha virt. eigenvalues --    0.80308   0.81817   0.83462   0.83548   0.89678
 Alpha virt. eigenvalues --    0.92606   0.95629   0.97257   0.97946   1.03511
 Alpha virt. eigenvalues --    1.04567   1.10920   1.12276   1.14032   1.21929
 Alpha virt. eigenvalues --    1.23619   1.26138   1.29554   1.31440   1.31942
 Alpha virt. eigenvalues --    1.33298   1.34251   1.36103   1.41279   1.42671
 Alpha virt. eigenvalues --    1.43591   1.45645   1.49401   1.51905   1.53862
 Alpha virt. eigenvalues --    1.63431   1.66549   1.68635   1.68689   1.73224
 Alpha virt. eigenvalues --    1.75173   1.77899   1.89575   1.92528   1.95611
 Alpha virt. eigenvalues --    2.00047   2.09785   2.15529   2.17535   2.19461
 Alpha virt. eigenvalues --    2.23594   2.25405   2.28095   2.34379   2.36059
 Alpha virt. eigenvalues --    2.37905   2.54768   2.65872   2.67778   2.74883
 Alpha virt. eigenvalues --    2.80663   2.94986   3.14228   3.18798   3.20787
 Alpha virt. eigenvalues --    3.29058   3.44640   3.72319   3.80598   3.83312
 Alpha virt. eigenvalues --    3.83773   3.84859   3.88796   3.89786   3.90204
 Alpha virt. eigenvalues --    3.93384   3.93541   3.96943   4.00712   4.02369
 Alpha virt. eigenvalues --    4.08396   4.12191   4.22595   4.28329   4.37521
 Alpha virt. eigenvalues --    4.40430   4.59226
  Beta  occ. eigenvalues --  -20.45695 -20.40585 -20.35449 -20.33497 -11.22952
  Beta  occ. eigenvalues --   -1.25746  -1.18138  -1.12322  -1.07681  -0.57839
  Beta  occ. eigenvalues --   -0.54207  -0.48092  -0.46547  -0.43874  -0.42486
  Beta  occ. eigenvalues --   -0.34055  -0.30802  -0.26905  -0.23904  -0.23650
  Beta virt. eigenvalues --    0.15341   0.18082   0.21754   0.22662   0.23487
  Beta virt. eigenvalues --    0.24428   0.27088   0.33156   0.34341   0.35392
  Beta virt. eigenvalues --    0.36469   0.37004   0.38814   0.39422   0.40822
  Beta virt. eigenvalues --    0.41791   0.42447   0.44305   0.46019   0.47586
  Beta virt. eigenvalues --    0.48993   0.50407   0.53869   0.54894   0.55929
  Beta virt. eigenvalues --    0.57854   0.62985   0.63058   0.64133   0.74867
  Beta virt. eigenvalues --    0.76355   0.80394   0.82076   0.83825   0.84451
  Beta virt. eigenvalues --    0.89768   0.93587   0.97068   0.98021   0.99530
  Beta virt. eigenvalues --    1.03905   1.04863   1.11251   1.12821   1.15085
  Beta virt. eigenvalues --    1.22030   1.24975   1.26207   1.30074   1.32036
  Beta virt. eigenvalues --    1.32940   1.33379   1.36606   1.36909   1.41542
  Beta virt. eigenvalues --    1.43356   1.44056   1.49079   1.50354   1.52186
  Beta virt. eigenvalues --    1.54713   1.64394   1.67038   1.69318   1.69369
  Beta virt. eigenvalues --    1.73535   1.75558   1.79330   1.89680   1.94345
  Beta virt. eigenvalues --    1.95667   2.05472   2.10516   2.17535   2.18878
  Beta virt. eigenvalues --    2.20895   2.23796   2.25395   2.28490   2.34660
  Beta virt. eigenvalues --    2.36031   2.37878   2.55145   2.65989   2.68383
  Beta virt. eigenvalues --    2.75037   2.81151   2.95053   3.14593   3.20694
  Beta virt. eigenvalues --    3.21016   3.30153   3.45243   3.81108   3.84998
  Beta virt. eigenvalues --    3.85436   3.88942   3.89362   3.89970   3.90306
  Beta virt. eigenvalues --    3.90797   3.93727   3.94693   3.97307   4.01787
  Beta virt. eigenvalues --    4.02749   4.10774   4.14609   4.23438   4.28805
  Beta virt. eigenvalues --    4.38198   4.41615   4.59292
          Condensed to atoms (all electrons):
               1          2          3          4          5          6
     1  C    4.042986   0.096762   0.364343   0.366875  -0.002058  -0.022386
     2  O    0.096762   8.470099  -0.081046  -0.035600  -0.000992   0.012569
     3  O    0.364343  -0.081046   8.643725  -0.070023  -0.000369   0.002191
     4  O    0.366875  -0.035600  -0.070023   8.580192  -0.047032   0.036658
     5  O   -0.002058  -0.000992  -0.000369  -0.047032   7.909190   0.250184
     6  H   -0.022386   0.012569   0.002191   0.036658   0.250184   0.449458
     7  H   -0.004070  -0.000313  -0.000040  -0.004217   0.339861  -0.037819
               7
     1  C   -0.004070
     2  O   -0.000313
     3  O   -0.000040
     4  O   -0.004217
     5  O    0.339861
     6  H   -0.037819
     7  H    0.577394
          Atomic-Atomic Spin Densities.
               1          2          3          4          5          6
     1  C   -0.074461  -0.072413  -0.001747   0.004664  -0.000191  -0.000802
     2  O   -0.072413   1.144765  -0.043838  -0.013330   0.001035   0.004301
     3  O   -0.001747  -0.043838   0.153806  -0.005174   0.000058  -0.000248
     4  O    0.004664  -0.013330  -0.005174   0.035473   0.001104  -0.002031
     5  O   -0.000191   0.001035   0.000058   0.001104  -0.000936   0.000161
     6  H   -0.000802   0.004301  -0.000248  -0.002031   0.000161   0.001037
     7  H    0.000040  -0.001363   0.000006  -0.000049   0.000368  -0.000393
               7
     1  C    0.000040
     2  O   -0.001363
     3  O    0.000006
     4  O   -0.000049
     5  O    0.000368
     6  H   -0.000393
     7  H    0.000002
 Mulliken charges and spin densities:
               1          2
     1  C    1.157548  -0.144910
     2  O   -0.461480   1.019156
     3  O   -0.858782   0.102864
     4  O   -0.826853   0.020656
     5  O   -0.448783   0.001598
     6  H    0.309146   0.002025
     7  H    0.129203  -0.001389
 Sum of Mulliken charges =  -1.00000   1.00000
 Mulliken charges and spin densities with hydrogens summed into heavy atoms:
               1          2
     1  C    1.157548  -0.144910
     2  O   -0.461480   1.019156
     3  O   -0.858782   0.102864
     4  O   -0.826853   0.020656
     5  O   -0.010434   0.002234
 Electronic spatial extent (au):  <R**2>=            534.9225
 Charge=             -1.0000 electrons
 Dipole moment (field-independent basis, Debye):
    X=              2.3637    Y=             -2.1416    Z=              0.0000  Tot=              3.1896
 Quadrupole moment (field-independent basis, Debye-Ang):
   XX=            -34.7561   YY=            -54.8354   ZZ=            -30.7109
   XY=             -4.1840   XZ=             -0.0000   YZ=             -0.0000
 Traceless Quadrupole moment (field-independent basis, Debye-Ang):
   XX=              5.3447   YY=            -14.7346   ZZ=              9.3899
   XY=             -4.1840   XZ=             -0.0000   YZ=             -0.0000
 Octapole moment (field-independent basis, Debye-Ang**2):
  XXX=              2.6334  YYY=              2.8134  ZZZ=              0.0000  XYY=             10.7747
  XXY=             -6.2653  XXZ=             -0.0000  XZZ=              0.6882  YZZ=              0.4539
  YYZ=              0.0000  XYZ=              0.0000
 Hexadecapole moment (field-independent basis, Debye-Ang**3):
 XXXX=           -130.2487 YYYY=           -681.8629 ZZZZ=            -28.6381 XXXY=            -20.0178
 XXXZ=             -0.0000 YYYX=            -55.4175 YYYZ=             -0.0000 ZZZX=             -0.0000
 ZZZY=             -0.0000 XXYY=            -98.0241 XXZZ=            -26.4780 YYZZ=            -93.8741
 XXYZ=             -0.0000 YYXZ=             -0.0000 ZZXY=             -7.4445
 N-N= 1.623168745348D+02 E-N=-1.135523779021D+03  KE= 3.381085854442D+02
 Symmetry A'   KE= 3.212654048713D+02
 Symmetry A"   KE= 1.684318057281D+01
 Symmetry A'   SP= 1.000000000000D+00
 Symmetry A"   SP= 2.977317838723D-15
                          Isotropic Fermi Contact Couplings
        Atom                 a.u.       MegaHertz       Gauss      10(-4) cm-1
     1  C(13)             -0.04305     -48.39494     -17.26852     -16.14282
     2  O(17)              0.28220    -171.06668     -61.04084     -57.06170
     3  O(17)              0.06111     -37.04596     -13.21892     -12.35720
     4  O(17)              0.00472      -2.86264      -1.02146      -0.95487
     5  O(17)             -0.00169       1.02206       0.36470       0.34092
     6  H(1)               0.00021       0.96026       0.34264       0.32031
     7  H(1)              -0.00007      -0.32616      -0.11638      -0.10879
 --------------------------------------------------------
       Center         ----  Spin Dipole Couplings  ----
                      3XX-RR        3YY-RR        3ZZ-RR
 --------------------------------------------------------
     1   Atom        0.047704     -0.001058     -0.046646
     2   Atom       -1.341004      3.073047     -1.732043
     3   Atom        0.366838     -0.103021     -0.263817
     4   Atom        0.125781     -0.018822     -0.106960
     5   Atom        0.005503      0.000325     -0.005829
     6   Atom        0.003810      0.004164     -0.007974
     7   Atom       -0.006238      0.014094     -0.007856
 --------------------------------------------------------
                        XY            XZ            YZ
 --------------------------------------------------------
     1   Atom       -0.022792     -0.000000      0.000000
     2   Atom        1.581199      0.000000     -0.000000
     3   Atom       -0.340123      0.000000      0.000000
     4   Atom       -0.094050      0.000000      0.000000
     5   Atom        0.009844      0.000000      0.000000
     6   Atom        0.011026      0.000000      0.000000
     7   Atom        0.004359      0.000000      0.000000
 --------------------------------------------------------


 ---------------------------------------------------------------------------------
              Anisotropic Spin Dipole Couplings in Principal Axis System
 ---------------------------------------------------------------------------------

       Atom             a.u.   MegaHertz   Gauss  10(-4) cm-1        Axes

              Baa    -0.0466    -6.259    -2.234    -2.088  0.0000  0.0000  1.0000
     1 C(13)  Bbb    -0.0101    -1.349    -0.481    -0.450  0.3671  0.9302 -0.0000
              Bcc     0.0567     7.608     2.715     2.538  0.9302 -0.3671  0.0000
 
              Baa    -1.8490   133.790    47.740    44.627  0.9521 -0.3059  0.0000
     2 O(17)  Bbb    -1.7320   125.329    44.721    41.805  0.0000  0.0000  1.0000
              Bcc     3.5810  -259.119   -92.460   -86.433  0.3059  0.9521 -0.0000
 
              Baa    -0.2815    20.366     7.267     6.794  0.4646  0.8855 -0.0000
     3 O(17)  Bbb    -0.2638    19.090     6.812     6.368  0.0000  0.0000  1.0000
              Bcc     0.5453   -39.456   -14.079   -13.161  0.8855 -0.4646 -0.0000
 
              Baa    -0.1070     7.740     2.762     2.582  0.0000  0.0000  1.0000
     4 O(17)  Bbb    -0.0651     4.714     1.682     1.572  0.4419  0.8971 -0.0000
              Bcc     0.1721   -12.454    -4.444    -4.154  0.8971 -0.4419 -0.0000
 
              Baa    -0.0073     0.526     0.188     0.175 -0.6106  0.7919 -0.0000
     5 O(17)  Bbb    -0.0058     0.422     0.150     0.141  0.0000  0.0000  1.0000
              Bcc     0.0131    -0.947    -0.338    -0.316  0.7919  0.6106 -0.0000
 
              Baa    -0.0080    -4.255    -1.518    -1.419  0.0000  0.0000  1.0000
     6 H(1)   Bbb    -0.0070    -3.756    -1.340    -1.253  0.7127 -0.7014 -0.0000
              Bcc     0.0150     8.011     2.859     2.672  0.7014  0.7127 -0.0000
 
              Baa    -0.0079    -4.192    -1.496    -1.398  0.0000  0.0000  1.0000
     7 H(1)   Bbb    -0.0071    -3.806    -1.358    -1.269  0.9796 -0.2011  0.0000
              Bcc     0.0150     7.998     2.854     2.668  0.2011  0.9796 -0.0000
 

 ---------------------------------------------------------------------------------

 No NMR shielding tensors so no spin-rotation constants.
 Leave Link  601 at Wed Feb 23 15:23:23 2022, MaxMem=  2684354560 cpu:               6.8 elap:               0.4
 (Enter /usr/site/hpc/x86_64/glibc-2.17/haswell/gaussian/g16_a.03/pgi-16.5/g16/l9999.exe)
 1\1\GINC-N044\Stability\UHF\Aug-CC-pVDZ\C1H2O4(1-,2)\C7441219\23-Feb-2
 022\0\\#p HF/aug-cc-pVDZ scf=xqc stable=opt\\co3w2- groundstate energy
 \\-1,2\C,0,-0.815482,0.087816,0.\O,0,-0.44486,-1.18108,0.\O,0,-2.08826
 6,0.148521,0.\O,0,0.015154,1.02784,0.\O,0,2.618909,-0.002293,0.\H,0,1.
 747451,0.454314,0.\H,0,2.337951,-0.925122,0.\\Version=ES64L-G16RevA.03
 \State=2-A'\HF=-338.5735674\S2=0.762339\S2-1=0.\S2A=0.750118\RMSD=3.40
 8e-09\Dipole=0.7381583,-1.0148294,0.\Quadrupole=-11.4459524,4.4647805,
 6.9811718,-1.4502557,0.,0.\PG=CS [SG(C1H2O4)]\\@


 Standing in the middle of the road is very dangerous;
 you get knocked down by the traffic from both sides.
                                -- Margaret Thatcher
 Job cpu time:       0 days  0 hours  1 minutes 18.9 seconds.
 Elapsed time:       0 days  0 hours  0 minutes  5.0 seconds.
 File lengths (MBytes):  RWF=    720 Int=      0 D2E=      0 Chk=     16 Scr=     16
 Normal termination of Gaussian 16 at Wed Feb 23 15:23:23 2022.
 Initial command:
 /usr/site/hpc/x86_64/glibc-2.17/haswell/gaussian/g16_a.03/pgi-16.5/g16/l1.exe "/gpfs/gpfs1/scratch/c7441219/CO3/TEMP/Gau-4052721.inp" -scrdir="/gpfs/gpfs1/scratch/c7441219/CO3/TEMP/"
 Entering Link 1 = /usr/site/hpc/x86_64/glibc-2.17/haswell/gaussian/g16_a.03/pgi-16.5/g16/l1.exe PID=   4053014.
  
 Copyright (c) 1988,1990,1992,1993,1995,1998,2003,2009,2016,
            Gaussian, Inc.  All Rights Reserved.
  
 This is part of the Gaussian(R) 16 program.  It is based on
 the Gaussian(R) 09 system (copyright 2009, Gaussian, Inc.),
 the Gaussian(R) 03 system (copyright 2003, Gaussian, Inc.),
 the Gaussian(R) 98 system (copyright 1998, Gaussian, Inc.),
 the Gaussian(R) 94 system (copyright 1995, Gaussian, Inc.),
 the Gaussian 92(TM) system (copyright 1992, Gaussian, Inc.),
 the Gaussian 90(TM) system (copyright 1990, Gaussian, Inc.),
 the Gaussian 88(TM) system (copyright 1988, Gaussian, Inc.),
 the Gaussian 86(TM) system (copyright 1986, Carnegie Mellon
 University), and the Gaussian 82(TM) system (copyright 1983,
 Carnegie Mellon University). Gaussian is a federally registered
 trademark of Gaussian, Inc.
  
 This software contains proprietary and confidential information,
 including trade secrets, belonging to Gaussian, Inc.
  
 This software is provided under written license and may be
 used, copied, transmitted, or stored only in accord with that
 written license.
  
 The following legend is applicable only to US Government
 contracts under FAR:
  
                    RESTRICTED RIGHTS LEGEND
  
 Use, reproduction and disclosure by the US Government is
 subject to restrictions as set forth in subparagraphs (a)
 and (c) of the Commercial Computer Software - Restricted
 Rights clause in FAR 52.227-19.
  
 Gaussian, Inc.
 340 Quinnipiac St., Bldg. 40, Wallingford CT 06492
  
  
 ---------------------------------------------------------------
 Warning -- This program may not be used in any manner that
 competes with the business of Gaussian, Inc. or will provide
 assistance to any competitor of Gaussian, Inc.  The licensee
 of this program is prohibited from giving any competitor of
 Gaussian, Inc. access to this program.  By using this program,
 the user acknowledges that Gaussian, Inc. is engaged in the
 business of creating and licensing software in the field of
 computational chemistry and represents and warrants to the
 licensee that it is not a competitor of Gaussian, Inc. and that
 it will not use this program in any manner prohibited above.
 ---------------------------------------------------------------
  

 Cite this work as:
 Gaussian 16, Revision A.03,
 M. J. Frisch, G. W. Trucks, H. B. Schlegel, G. E. Scuseria, 
 M. A. Robb, J. R. Cheeseman, G. Scalmani, V. Barone, 
 G. A. Petersson, H. Nakatsuji, X. Li, M. Caricato, A. V. Marenich, 
 J. Bloino, B. G. Janesko, R. Gomperts, B. Mennucci, H. P. Hratchian, 
 J. V. Ortiz, A. F. Izmaylov, J. L. Sonnenberg, D. Williams-Young, 
 F. Ding, F. Lipparini, F. Egidi, J. Goings, B. Peng, A. Petrone, 
 T. Henderson, D. Ranasinghe, V. G. Zakrzewski, J. Gao, N. Rega, 
 G. Zheng, W. Liang, M. Hada, M. Ehara, K. Toyota, R. Fukuda, 
 J. Hasegawa, M. Ishida, T. Nakajima, Y. Honda, O. Kitao, H. Nakai, 
 T. Vreven, K. Throssell, J. A. Montgomery, Jr., J. E. Peralta, 
 F. Ogliaro, M. J. Bearpark, J. J. Heyd, E. N. Brothers, K. N. Kudin, 
 V. N. Staroverov, T. A. Keith, R. Kobayashi, J. Normand, 
 K. Raghavachari, A. P. Rendell, J. C. Burant, S. S. Iyengar, 
 J. Tomasi, M. Cossi, J. M. Millam, M. Klene, C. Adamo, R. Cammi, 
 J. W. Ochterski, R. L. Martin, K. Morokuma, O. Farkas, 
 J. B. Foresman, and D. J. Fox, Gaussian, Inc., Wallingford CT, 2016.
 
 ******************************************
 Gaussian 16:  ES64L-G16RevA.03 25-Dec-2016
                23-Feb-2022 
 ******************************************
 %nproc=20
 Will use up to   20 processors via shared memory.
 %mem=20GB
 %chk=co3.1.i3.cc_acp.stable.chk
 -----------------------------------------------------------
 #p CCSD/aug-cc-pVDZ scf=xqc guess=check geom=check opt freq
 -----------------------------------------------------------
 1/18=20,19=15,29=2,38=1/1,3;
 2/9=110,12=2,40=1/2;
 3/5=16,7=10,11=9,14=-4,25=1,30=1,71=1,116=-2/1,2,3;
 4/5=1/1;
 5/5=2,8=3,13=1,38=6/2,8;
 8/6=4,9=120000,10=1/1,4;
 9/5=7,15=1/13;
 11/28=-8,29=200,42=3/11;
 10/5=6/2;
 6/7=2,8=2,9=2,10=2/1;
 7/12=7/1,2,3,16;
 1/18=20,19=15/3(2);
 2/9=110/2;
 99//99;
 2/9=110/2;
 3/5=16,7=10,11=9,14=-2,25=1,30=1,71=1/1,2,3;
 4/5=5,16=3,69=1/1;
 5/5=2,8=3,13=1,38=5/2,8;
 8/6=4,9=120000,10=1/1,4;
 9/5=7,15=1/13;
 11/28=-8,29=200,42=3/11;
 10/5=6/2;
 7/12=7/1,2,3,16;
 1/18=20,19=15/3(-9);
 2/9=110/2;
 6/7=2,8=2,9=2,10=2/1;
 99//99;
 Leave Link    1 at Wed Feb 23 15:23:24 2022, MaxMem=  2684354560 cpu:               3.0 elap:               0.2
 (Enter /usr/site/hpc/x86_64/glibc-2.17/haswell/gaussian/g16_a.03/pgi-16.5/g16/l101.exe)
 -------------------------
 co3w2- groundstate energy
 -------------------------
 Structure from the checkpoint file:  "co3.1.i3.cc_acp.stable.chk"
 Charge = -1 Multiplicity = 2
 Z-Matrix found in chk file.
 C,0,-0.815482,0.087816,0.
 O,0,-0.44486,-1.18108,0.
 O,0,-2.088266,0.148521,0.
 O,0,0.015154,1.02784,0.
 O,0,2.618909,-0.002293,0.
 H,0,1.747451,0.454314,0.
 H,0,2.337951,-0.925122,0.
 Recover connectivity data from disk.
 Add virtual bond connecting atoms H6         and O4         Dist= 3.45D+00.
 Add atom      1 valence  3 ND=      2 dihedral       2      1      3      4
 ITRead=  0  0  0  0  0  0  0
 MicOpt= -1 -1 -1 -1 -1 -1 -1
[...]
                  X                                                             X                                                    
                  X                                                             X                                                    
                  X                                                                                                                  
                  X                                                                                                                  
                  X                                                                                                                  
                  X                                                                                                                  
 
 ***** Axes restored to original set *****
 -------------------------------------------------------------------
 Center     Atomic                   Forces (Hartrees/Bohr)
 Number     Number              X              Y              Z
 -------------------------------------------------------------------
      1        6          -0.000172846   -0.000016314    0.000000000
      2        8           0.000060129   -0.000015020   -0.000000000
      3        8           0.000070434    0.000013031   -0.000000000
      4        8           0.000041467    0.000035467   -0.000000000
      5        8          -0.000036578   -0.000004279    0.000000000
      6        1           0.000019436   -0.000012179   -0.000000000
      7        1           0.000017958   -0.000000706   -0.000000000
 -------------------------------------------------------------------
 Cartesian Forces:  Max     0.000172846 RMS     0.000045928
 Force constants in Cartesian coordinates: 
                1             2             3             4             5 
      1  0.513135D+00
      2  0.253442D+00  0.560578D+00
      3  0.000000D+00  0.000000D+00  0.243412D+00
      4  0.626463D-01  0.329055D-01  0.000000D+00  0.511817D-01
      5 -0.405460D-01 -0.202391D+00  0.000000D+00 -0.683174D-01  0.346916D+00
      6  0.000000D+00  0.000000D+00 -0.721031D-01  0.000000D+00  0.000000D+00
      7 -0.366623D+00 -0.344093D-01  0.000000D+00 -0.967198D-01  0.100726D+00
      8  0.512521D-01 -0.428034D-01  0.000000D+00  0.412371D-01 -0.439426D-01
      9  0.000000D+00  0.000000D+00 -0.802902D-01  0.000000D+00  0.000000D+00
     10 -0.206117D+00 -0.250786D+00  0.000000D+00 -0.134981D-01  0.772315D-02
     11 -0.264249D+00 -0.316607D+00  0.000000D+00 -0.513477D-02 -0.100118D+00
     12  0.000000D+00  0.000000D+00 -0.914044D-01  0.000000D+00  0.000000D+00
     13  0.579819D-02  0.107292D-01  0.000000D+00  0.266549D-03 -0.308134D-02
     14 -0.468211D-02 -0.275238D-02  0.000000D+00 -0.105164D-02 -0.598569D-03
     15  0.000000D+00  0.000000D+00 -0.791382D-03  0.000000D+00  0.000000D+00
     16 -0.117256D-01 -0.968166D-02  0.000000D+00 -0.361329D-02  0.141436D-02
     17  0.373224D-02  0.253329D-02  0.000000D+00  0.388458D-03  0.148621D-02
     18  0.000000D+00  0.000000D+00  0.281403D-03  0.000000D+00  0.000000D+00
     19  0.288220D-02 -0.214316D-02  0.000000D+00 -0.278838D-03  0.204445D-02
     20  0.139101D-02  0.136728D-02  0.000000D+00 -0.200196D-03 -0.129297D-02
     21  0.000000D+00  0.000000D+00  0.825348D-03  0.000000D+00  0.000000D+00
                6             7             8             9            10 
      6  0.216191D-01
      7  0.000000D+00  0.558221D+00
      8  0.000000D+00 -0.414468D-01  0.746587D-01
      9  0.237540D-01  0.000000D+00  0.000000D+00  0.266904D-01
     10  0.000000D+00 -0.967887D-01 -0.494871D-01  0.000000D+00  0.328533D+00
     11  0.000000D+00 -0.233863D-01  0.123018D-01  0.000000D+00  0.286335D+00
     12  0.271466D-01  0.000000D+00  0.000000D+00  0.297353D-01  0.000000D+00
     13  0.000000D+00 -0.479644D-02 -0.104559D-02  0.000000D+00 -0.214944D-01
     14  0.000000D+00  0.310151D-02 -0.141361D-03  0.000000D+00  0.117573D-01
     15  0.132930D-02  0.000000D+00  0.000000D+00 -0.379660D-04  0.000000D+00
     16  0.000000D+00  0.739215D-02 -0.768301D-03  0.000000D+00  0.122227D-01
     17  0.000000D+00 -0.431362D-02  0.556640D-04  0.000000D+00 -0.466266D-02
     18 -0.860942D-03  0.000000D+00  0.000000D+00  0.575442D-03  0.000000D+00
     19  0.000000D+00 -0.673213D-03  0.234326D-03  0.000000D+00 -0.284832D-02
     20  0.000000D+00 -0.353900D-03 -0.165709D-03  0.000000D+00 -0.959660D-03
     21 -0.882117D-03  0.000000D+00  0.000000D+00 -0.317622D-03  0.000000D+00
               11            12            13            14            15 
     11  0.410505D+00
     12  0.000000D+00  0.374663D-01
     13  0.165424D-02  0.000000D+00  0.459731D+00
     14  0.477775D-02  0.000000D+00 -0.287399D-01  0.608169D+00
     15  0.000000D+00  0.529990D-02  0.000000D+00  0.000000D+00  0.139863D-01
     16  0.577365D-02  0.000000D+00 -0.355679D+00  0.183013D+00  0.000000D+00
     17 -0.116439D-01  0.000000D+00  0.127200D+00 -0.130464D+00  0.000000D+00
     18  0.000000D+00 -0.763998D-02  0.000000D+00  0.000000D+00 -0.160116D-01
     19 -0.988722D-03  0.000000D+00 -0.838207D-01 -0.163399D+00  0.000000D+00
     20  0.836176D-03  0.000000D+00 -0.106720D+00 -0.478990D+00  0.000000D+00
     21  0.000000D+00 -0.652721D-03  0.000000D+00  0.000000D+00 -0.378686D-02
               16            17            18            19            20 
     16  0.342896D+00
     17 -0.165323D+00  0.167263D+00
     18  0.000000D+00  0.000000D+00  0.207243D-01
     19  0.850190D-02  0.429815D-01  0.000000D+00  0.762355D-01
     20 -0.144297D-01 -0.292342D-01  0.000000D+00  0.121271D+00  0.507483D+00
     21  0.000000D+00  0.000000D+00  0.294008D-02  0.000000D+00  0.000000D+00
               21 
     21  0.188467D-02
 FormGI is forming the generalized inverse of G from B-inverse, IUseBI=4.
 Force constants in internal coordinates: 
                1             2             3             4             5 
      1  0.360445D+00
      2  0.126229D+00  0.561062D+00
      3  0.627954D-01  0.801844D-01  0.660205D+00
      4 -0.140269D-02 -0.235375D-02  0.431074D-02  0.182230D-01
      5  0.159378D-03  0.611083D-02 -0.815366D-02  0.235151D-01  0.468960D+00
      6 -0.583846D-03 -0.499987D-03  0.857131D-03 -0.507702D-03 -0.341654D-02
      7  0.200018D-01  0.694528D-01 -0.518336D-01 -0.350144D-02 -0.282093D-03
      8  0.750036D-01 -0.949584D-01  0.348016D-01  0.385041D-02 -0.153125D-02
      9 -0.950054D-01  0.255056D-01  0.170320D-01 -0.348975D-03  0.181335D-02
     10 -0.140734D-02  0.369220D-02  0.647824D-02  0.736572D-02  0.206886D-02
     11 -0.419341D-02  0.101287D-02 -0.214515D-02  0.862450D-03  0.225536D-01
     12 -0.779239D-03  0.104620D-02 -0.193689D-02  0.716667D-02 -0.436273D-02
     13  0.000000D+00  0.000000D+00  0.000000D+00  0.000000D+00  0.000000D+00
     14  0.000000D+00  0.000000D+00  0.000000D+00  0.000000D+00  0.000000D+00
     15  0.000000D+00  0.000000D+00  0.000000D+00  0.000000D+00  0.000000D+00
     16  0.000000D+00  0.000000D+00  0.000000D+00  0.000000D+00  0.000000D+00
     17  0.000000D+00  0.000000D+00  0.000000D+00  0.000000D+00  0.000000D+00
                6             7             8             9            10 
      6  0.538484D+00
      7  0.399585D-03  0.104653D+00
      8 -0.549479D-03 -0.222001D-01  0.863281D-01
      9  0.149894D-03 -0.824529D-01 -0.641281D-01  0.146581D+00
     10  0.172800D-02 -0.945788D-02  0.111418D-01 -0.168387D-02  0.286844D-01
     11  0.354509D-01  0.105522D-02 -0.102948D-02 -0.257401D-04 -0.577136D-02
     12  0.657052D-03 -0.228252D-02  0.287076D-02 -0.588240D-03 -0.793243D-03
     13  0.000000D+00  0.000000D+00  0.000000D+00  0.000000D+00  0.000000D+00
     14  0.000000D+00  0.000000D+00  0.000000D+00  0.000000D+00  0.000000D+00
     15  0.000000D+00  0.000000D+00  0.000000D+00  0.000000D+00  0.000000D+00
     16  0.000000D+00  0.000000D+00  0.000000D+00  0.000000D+00  0.000000D+00
     17  0.000000D+00  0.000000D+00  0.000000D+00  0.000000D+00  0.000000D+00
               11            12            13            14            15 
     11  0.150326D+00
     12 -0.136358D-01  0.195012D-01
     13  0.000000D+00  0.000000D+00  0.217910D-01
     14  0.000000D+00  0.000000D+00 -0.623901D-03  0.448049D-01
     15  0.000000D+00  0.000000D+00  0.251419D-02 -0.255803D-01  0.152688D-01
     16  0.000000D+00  0.000000D+00  0.181671D-02  0.245091D-01 -0.133286D-01
     17  0.000000D+00  0.000000D+00  0.490623D-02 -0.169203D-02  0.231745D-02
               16            17 
     16  0.140713D-01
     17  0.425850D-03  0.619562D-02
 Leave Link  716 at Wed Feb 23 21:46:40 2022, MaxMem=  2684354560 cpu:               3.5 elap:               0.2
 (Enter /usr/site/hpc/x86_64/glibc-2.17/haswell/gaussian/g16_a.03/pgi-16.5/g16/l103.exe)

 GradGradGradGradGradGradGradGradGradGradGradGradGradGradGradGradGradGrad
 Berny optimization.
 Red2BG is reusing G-inverse.
 Internal  Forces:  Max     0.000075969 RMS     0.000034832
 Search for a local minimum.
 Step number   1 out of a maximum of    2
 All quantities printed in internal units (Hartrees-Bohrs-Radians)
 Second derivative matrix not updated -- analytic derivatives used.
 The second derivative matrix:
                          R1        R2        R3        R4        R5
           R1           0.36044
           R2           0.12623   0.56106
           R3           0.06280   0.08018   0.66021
           R4          -0.00140  -0.00235   0.00431   0.01822
           R5           0.00016   0.00611  -0.00815   0.02352   0.46896
           R6          -0.00058  -0.00050   0.00086  -0.00051  -0.00342
           A1           0.02000   0.06945  -0.05183  -0.00350  -0.00028
           A2           0.07500  -0.09496   0.03480   0.00385  -0.00153
           A3          -0.09501   0.02551   0.01703  -0.00035   0.00181
           A4          -0.00141   0.00369   0.00648   0.00737   0.00207
           A5          -0.00419   0.00101  -0.00215   0.00086   0.02255
           A6          -0.00078   0.00105  -0.00194   0.00717  -0.00436
           A7          -0.00000  -0.00000  -0.00000  -0.00000  -0.00000
           D1          -0.00000  -0.00000  -0.00000  -0.00000  -0.00000
           D2           0.00000   0.00000   0.00000   0.00000   0.00000
           D3           0.00000   0.00000   0.00000   0.00000   0.00000
           D4           0.00000   0.00000   0.00000   0.00000   0.00000
                          R6        A1        A2        A3        A4
           R6           0.53848
           A1           0.00040   0.10465
           A2          -0.00055  -0.02220   0.08633
           A3           0.00015  -0.08245  -0.06413   0.14658
           A4           0.00173  -0.00946   0.01114  -0.00168   0.02868
           A5           0.03545   0.00106  -0.00103  -0.00003  -0.00577
           A6           0.00066  -0.00228   0.00287  -0.00059  -0.00079
           A7          -0.00000   0.00000   0.00000  -0.00000   0.00000
           D1          -0.00000  -0.00000   0.00000  -0.00000   0.00000
           D2           0.00000   0.00000  -0.00000   0.00000  -0.00000
           D3          -0.00000  -0.00000  -0.00000   0.00000  -0.00000
           D4           0.00000   0.00000  -0.00000   0.00000   0.00000
                          A5        A6        A7        D1        D2
           A5           0.15033
           A6          -0.01364   0.01950
           A7          -0.00000  -0.00000   0.02179
           D1           0.00000   0.00000  -0.00062   0.04480
           D2           0.00000  -0.00000   0.00251  -0.02558   0.01527
           D3           0.00000   0.00000   0.00182   0.02451  -0.01333
           D4           0.00000   0.00000   0.00491  -0.00169   0.00232
                          D3        D4
           D3           0.01407
           D4           0.00043   0.00620
 ITU=  0
     Eigenvalues ---    0.00056   0.00496   0.00769   0.02277   0.02370
     Eigenvalues ---    0.02374   0.05570   0.07291   0.14675   0.16318
     Eigenvalues ---    0.39600   0.47106   0.54171   0.57164   0.74322
 Angle between quadratic step and forces=  29.11 degrees.
 Linear search not attempted -- first point.
 Iteration  1 RMS(Cart)=  0.00115781 RMS(Int)=  0.00000105
 Iteration  2 RMS(Cart)=  0.00000110 RMS(Int)=  0.00000000
 Iteration  3 RMS(Cart)=  0.00000000 RMS(Int)=  0.00000000
 ITry= 1 IFail=0 DXMaxC= 3.56D-03 DCOld= 1.00D+10 DXMaxT= 3.00D-01 DXLimC= 3.00D+00 Rises=F
 ClnCor:  largest displacement from symmetrization is 3.25D-10 for atom     5.
 Variable       Old X    -DE/DX   Delta X   Delta X   Delta X     New X
                                 (Linear)    (Quad)   (Total)
    R1        2.49806   0.00003   0.00000   0.00081   0.00081   2.49886
    R2        2.40795  -0.00007   0.00000  -0.00081  -0.00081   2.40713
    R3        2.37053   0.00004   0.00000   0.00026   0.00026   2.37079
    R4        3.44832   0.00001   0.00000   0.00089   0.00089   3.44920
    R5        1.85918  -0.00001   0.00000  -0.00007  -0.00007   1.85910
    R6        1.82293  -0.00000   0.00000  -0.00003  -0.00003   1.82290
    A1        1.90263   0.00006   0.00000   0.00117   0.00117   1.90380
    A2        2.13372  -0.00008   0.00000  -0.00180  -0.00180   2.13192
    A3        2.24684   0.00002   0.00000   0.00063   0.00063   2.24747
    A4        1.97478  -0.00005   0.00000  -0.00061  -0.00061   1.97417
    A5        1.75789   0.00003   0.00000   0.00028   0.00028   1.75817
    A6        2.97868   0.00001   0.00000   0.00073   0.00073   2.97941
    A7        3.14159   0.00000   0.00000   0.00000   0.00000   3.14159
    D1        3.14159   0.00000   0.00000  -0.00000   0.00000   3.14159
    D2       -0.00000  -0.00000   0.00000  -0.00000   0.00000   0.00000
    D3        3.14159  -0.00000   0.00000  -0.00000   0.00000   3.14159
    D4        0.00000  -0.00000   0.00000   0.00000   0.00000   0.00000
         Item               Value     Threshold  Converged?
 Maximum Force            0.000076     0.000450     YES
 RMS     Force            0.000035     0.000300     YES
 Maximum Displacement     0.003561     0.001800     NO 
 RMS     Displacement     0.001158     0.001200     YES
 Predicted change in Energy=-1.789207D-07
                           ----------------------------
                           ! Non-Optimized Parameters !
                           ! (Angstroms and Degrees)  !
 --------------------------                            --------------------------
 ! Name  Definition              Value          Derivative Info.                !
 --------------------------------------------------------------------------------
 ! R1    R(1,2)                  1.3223         -DE/DX =    0.0                 !
 ! R2    R(1,3)                  1.2738         -DE/DX =   -0.0001              !
 ! R3    R(1,4)                  1.2546         -DE/DX =    0.0                 !
 ! R4    R(4,6)                  1.8252         -DE/DX =    0.0                 !
 ! R5    R(5,6)                  0.9838         -DE/DX =    0.0                 !
 ! R6    R(5,7)                  0.9646         -DE/DX =    0.0                 !
 ! A1    A(2,1,3)              109.0796         -DE/DX =    0.0001              !
 ! A2    A(2,1,4)              122.1501         -DE/DX =   -0.0001              !
 ! A3    A(3,1,4)              128.7703         -DE/DX =    0.0                 !
 ! A4    A(1,4,6)              113.1114         -DE/DX =    0.0                 !
 ! A5    A(6,5,7)              100.7355         -DE/DX =    0.0                 !
 ! A6    L(4,6,5,2,-1)         170.7078         -DE/DX =    0.0                 !
 ! A7    L(4,6,5,2,-2)         180.0            -DE/DX =    0.0                 !
 ! D1    D(2,1,3,4)            180.0            -DE/DX =    0.0                 !
 ! D2    D(2,1,4,6)              0.0            -DE/DX =    0.0                 !
 ! D3    D(3,1,4,6)            180.0            -DE/DX =    0.0                 !
 ! D4    D(1,4,5,7)              0.0            -DE/DX =    0.0                 !
 --------------------------------------------------------------------------------
 GradGradGradGradGradGradGradGradGradGradGradGradGradGradGradGradGradGrad

 Leave Link  103 at Wed Feb 23 21:46:40 2022, MaxMem=  2684354560 cpu:               3.3 elap:               0.2
 (Enter /usr/site/hpc/x86_64/glibc-2.17/haswell/gaussian/g16_a.03/pgi-16.5/g16/l9999.exe)
 1\1\GINC-N044\Freq\UCCSD-FC\Aug-CC-pVDZ\C1H2O4(1-,2)\C7441219\23-Feb-2
 022\0\\#P Geom=AllCheck Guess=TCheck SCRF=Check GenChk UCCSD(FC)/Aug-C
 C-pVDZ Freq\\co3w2- groundstate energy\\-1,2\C,-0.815482,0.087816,0.\O
 ,-0.44486,-1.18108,0.\O,-2.088266,0.148521,0.\O,0.015154,1.02784,0.\O,
 2.618909,-0.002293,0.\H,1.747451,0.454314,0.\H,2.337951,-0.925122,0.\\
 Version=ES64L-G16RevA.03\State=2-A'\HF=-338.5735674\MP2=-339.4823827\M
 P3=-339.4823701\MP4D=-339.5011447\MP4DQ=-339.4858514\PUHF=-338.5776982
 \PMP2-0=-339.4849931\PMP3-0=-339.4842293\MP4SDQ=-339.5033267\CCSD=-339
 .5095084\S2=0.762339\S2-1=0.753204\S2A=0.750118\RMSD=1.042e-09\RMSF=4.
 593e-05\ZeroPoint=0.0368136\Thermal=0.0436246\Dipole=0.3098218,-0.5105
 583,0.\DipoleDeriv=0.133289,1.6455654,0.,1.4002338,0.5353669,0.,0.,0.,
 0.3080332,0.354993,-0.3465448,0.,-0.5994547,-0.2717084,0.,0.,0.,-0.311
 0282,-0.8599875,-0.4563538,0.,0.0857034,-0.3544378,0.,0.,0.,-0.430234,
 -0.8738282,-0.7926916,0.,-0.8140652,-0.8131443,0.,0.,0.,-0.4395984,-0.
 8851323,0.1641789,0.,0.1905486,-0.420492,0.,0.,0.,-0.6411993,0.8163021
 ,-0.0533279,0.,-0.1781365,0.1901774,0.,0.,0.,0.2362347,0.3141636,-0.16
 02131,0.,-0.081558,0.1318942,0.,0.,0.,0.2784653\PG=CS [SG(C1H2O4)]\NIm
 ag=0\\0.51313546,0.25344158,0.56057804,0.,0.,0.24341200,0.06264634,0.0
 3290546,0.,0.05118172,-0.04054599,-0.20239096,0.,-0.06831740,0.3469163
 8,0.,0.,-0.07210306,0.,0.,0.02161905,-0.36662335,-0.03440928,0.,-0.096
 71975,0.10072561,0.,0.55822086,0.05125215,-0.04280340,0.,0.04123707,-0
 .04394262,0.,-0.04144680,0.07465866,0.,0.,-0.08029017,0.,0.,0.02375402
 ,0.,0.,0.02669044,-0.20611681,-0.25078593,0.,-0.01349811,0.00772315,0.
 ,-0.09678868,-0.04948712,0.,0.32853315,-0.26424868,-0.31660659,0.,-0.0
 0513477,-0.10011781,0.,-0.02338625,0.01230181,0.,0.28633527,0.41050516
 ,0.,0.,-0.09140443,0.,0.,0.02714661,0.,0.,0.02973526,0.,0.,0.03746630,
 0.00579819,0.01072923,0.,0.00026655,-0.00308134,0.,-0.00479644,-0.0010
 4559,0.,-0.02149441,0.00165424,0.,0.45973060,-0.00468211,-0.00275238,0
 .,-0.00105164,-0.00059857,0.,0.00310151,-0.00014136,0.,0.01175729,0.00
 477775,0.,-0.02873994,0.60816943,0.,0.,-0.00079138,0.,0.,0.00132930,0.
 ,0.,-0.00003797,0.,0.,0.00529990,0.,0.,0.01398627,-0.01172562,-0.00968
 166,0.,-0.00361329,0.00141436,0.,0.00739215,-0.00076830,0.,0.01222272,
 0.00577365,0.,-0.35567932,0.18301257,0.,0.34289637,0.00373224,0.002533
 29,0.,0.00038846,0.00148621,0.,-0.00431362,0.00005566,0.,-0.00466266,-
 0.01164393,0.,0.12720008,-0.13046436,0.,-0.16532273,0.16726284,0.,0.,0
 .00028140,0.,0.,-0.00086094,0.,0.,0.00057544,0.,0.,-0.00763998,0.,0.,-
 0.01601163,0.,0.,0.02072430,0.00288220,-0.00214316,0.,-0.00027884,0.00
 204445,0.,-0.00067321,0.00023433,0.,-0.00284832,-0.00098872,0.,-0.0838
 2072,-0.16339921,0.,0.00850190,0.04298148,0.,0.07623550,0.00139101,0.0
 0136728,0.,-0.00020020,-0.00129297,0.,-0.00035390,-0.00016571,0.,-0.00
 095966,0.00083618,0.,-0.10672026,-0.47898995,0.,-0.01442974,-0.0292341
 9,0.,0.12127148,0.50748272,0.,0.,0.00082535,0.,0.,-0.00088212,0.,0.,-0
 .00031762,0.,0.,-0.00065272,0.,0.,-0.00378686,0.,0.,0.00294008,0.,0.,0
 .00188467\\0.00017285,0.00001631,0.,-0.00006013,0.00001502,0.,-0.00007
 043,-0.00001303,0.,-0.00004147,-0.00003547,0.,0.00003658,0.00000428,0.
 ,-0.00001944,0.00001218,0.,-0.00001796,0.00000071,0.\\\@


 QED = W**5 (WHICH WAS WHAT WE WANTED)
 Job cpu time:       5 days  3 hours 55 minutes 18.8 seconds.
 Elapsed time:       0 days  6 hours 15 minutes  4.2 seconds.
 File lengths (MBytes):  RWF=   4504 Int=      0 D2E=      0 Chk=     56 Scr=     16
 Normal termination of Gaussian 16 at Wed Feb 23 21:46:40 2022.
