 Entering Gaussian System, Link 0=g16
 Input=co3.com
 Output=co3.com.log
 Initial command:
 /usr/site/hpc/x86_64/glibc-2.17/broadwell/gaussian/g16_a.03/pgi-16.5/g16/l1.exe "/gpfs/gpfs1/scratch/c7441219/CO3/StrukturenVersion2/Gau-490217.inp" -scrdir="/gpfs/gpfs1/scratch/c7441219/CO3/StrukturenVersion2/"
 Entering Link 1 = /usr/site/hpc/x86_64/glibc-2.17/broadwell/gaussian/g16_a.03/pgi-16.5/g16/l1.exe PID=    490218.
  
 Copyright (c) 1988,1990,1992,1993,1995,1998,2003,2009,2016,
            Gaussian, Inc.  All Rights Reserved.
  
 This is part of the Gaussian(R) 16 program.  It is based on
 the Gaussian(R) 09 system (copyright 2009, Gaussian, Inc.),
 the Gaussian(R) 03 system (copyright 2003, Gaussian, Inc.),
 the Gaussian(R) 98 system (copyright 1998, Gaussian, Inc.),
 the Gaussian(R) 94 system (copyright 1995, Gaussian, Inc.),
 the Gaussian 92(TM) system (copyright 1992, Gaussian, Inc.),
 the Gaussian 90(TM) system (copyright 1990, Gaussian, Inc.),
 the Gaussian 88(TM) system (copyright 1988, Gaussian, Inc.),
 the Gaussian 86(TM) system (copyright 1986, Carnegie Mellon
 University), and the Gaussian 82(TM) system (copyright 1983,
 Carnegie Mellon University). Gaussian is a federally registered
 trademark of Gaussian, Inc.
  
 This software contains proprietary and confidential information,
 including trade secrets, belonging to Gaussian, Inc.
  
 This software is provided under written license and may be
 used, copied, transmitted, or stored only in accord with that
 written license.
  
 The following legend is applicable only to US Government
 contracts under FAR:
  
                    RESTRICTED RIGHTS LEGEND
  
 Use, reproduction and disclosure by the US Government is
 subject to restrictions as set forth in subparagraphs (a)
 and (c) of the Commercial Computer Software - Restricted
 Rights clause in FAR 52.227-19.
  
 Gaussian, Inc.
 340 Quinnipiac St., Bldg. 40, Wallingford CT 06492
  
  
 ---------------------------------------------------------------
 Warning -- This program may not be used in any manner that
 competes with the business of Gaussian, Inc. or will provide
 assistance to any competitor of Gaussian, Inc.  The licensee
 of this program is prohibited from giving any competitor of
 Gaussian, Inc. access to this program.  By using this program,
 the user acknowledges that Gaussian, Inc. is engaged in the
 business of creating and licensing software in the field of
 computational chemistry and represents and warrants to the
 licensee that it is not a competitor of Gaussian, Inc. and that
 it will not use this program in any manner prohibited above.
 ---------------------------------------------------------------
  

 Cite this work as:
 Gaussian 16, Revision A.03,
 M. J. Frisch, G. W. Trucks, H. B. Schlegel, G. E. Scuseria, 
 M. A. Robb, J. R. Cheeseman, G. Scalmani, V. Barone, 
 G. A. Petersson, H. Nakatsuji, X. Li, M. Caricato, A. V. Marenich, 
 J. Bloino, B. G. Janesko, R. Gomperts, B. Mennucci, H. P. Hratchian, 
 J. V. Ortiz, A. F. Izmaylov, J. L. Sonnenberg, D. Williams-Young, 
 F. Ding, F. Lipparini, F. Egidi, J. Goings, B. Peng, A. Petrone, 
 T. Henderson, D. Ranasinghe, V. G. Zakrzewski, J. Gao, N. Rega, 
 G. Zheng, W. Liang, M. Hada, M. Ehara, K. Toyota, R. Fukuda, 
 J. Hasegawa, M. Ishida, T. Nakajima, Y. Honda, O. Kitao, H. Nakai, 
 T. Vreven, K. Throssell, J. A. Montgomery, Jr., J. E. Peralta, 
 F. Ogliaro, M. J. Bearpark, J. J. Heyd, E. N. Brothers, K. N. Kudin, 
 V. N. Staroverov, T. A. Keith, R. Kobayashi, J. Normand, 
 K. Raghavachari, A. P. Rendell, J. C. Burant, S. S. Iyengar, 
 J. Tomasi, M. Cossi, J. M. Millam, M. Klene, C. Adamo, R. Cammi, 
 J. W. Ochterski, R. L. Martin, K. Morokuma, O. Farkas, 
 J. B. Foresman, and D. J. Fox, Gaussian, Inc., Wallingford CT, 2016.
 
 ******************************************
 Gaussian 16:  ES64L-G16RevA.03 25-Dec-2016
                23-Feb-2022 
 ******************************************
 %nproc=28
 Will use up to   28 processors via shared memory.
 %mem=28GB
 %chk=co3.0.cc_acp.stable.chk
 ------------------------------------
 #p HF/aug-cc-pVDZ scf=xqc stable=opt
 ------------------------------------
 1/38=1,172=1/1;
 2/12=2,17=6,18=5,40=1/2;
 3/5=16,7=10,11=2,25=1,30=1/1,2,3;
 4//1;
 5/5=2,8=3,13=1,38=5/2,8;
 6/7=2,8=2,9=2,10=2,28=1/1;
 8/6=1,10=90,11=11/1;
 9/8=-3,42=1,46=1/14;
 5/5=2,8=3,17=40,38=5/8(-2);
 6/7=2,8=2,9=2,10=2,28=1/1;
 99/5=1,9=1/99;
 Leave Link    1 at Wed Feb 23 15:11:23 2022, MaxMem=  3758096384 cpu:               2.6 elap:               0.1
 (Enter /usr/site/hpc/x86_64/glibc-2.17/broadwell/gaussian/g16_a.03/pgi-16.5/g16/l101.exe)
 -------------------------
 co3w2- groundstate energy
 -------------------------
 Symbolic Z-matrix:
 Charge = -1 Multiplicity = 2
 o
 c                    1    co2
 o                    2    oc3      1    oco3
 o                    2    oc4      1    oco4     3    dih4     0
       Variables:
  co2                   1.33859                  
  oc3                   1.2597                   
  oco3                115.005                    
  oc4                   1.2597                   
  oco4                115.005                    
  dih4                180.                       
 
 ITRead=  0  0  0  0
 MicOpt= -1 -1 -1 -1
 NAtoms=      4 NQM=        4 NQMF=       0 NMMI=      0 NMMIF=      0
                NMic=       0 NMicF=      0.
                    Isotopes and Nuclear Properties:
 (Nuclear quadrupole moments (NQMom) in fm**2, nuclear magnetic moments (NMagM)
  in nuclear magnetons)

  Atom         1           2           3           4
 IAtWgt=          16          12          16          16
 AtmWgt=  15.9949146  12.0000000  15.9949146  15.9949146
 NucSpn=           0           0           0           0
 AtZEff=  -0.0000000  -0.0000000  -0.0000000  -0.0000000
 NQMom=    0.0000000   0.0000000   0.0000000   0.0000000
 NMagM=    0.0000000   0.0000000   0.0000000   0.0000000
 AtZNuc=   8.0000000   6.0000000   8.0000000   8.0000000
 Leave Link  101 at Wed Feb 23 15:11:23 2022, MaxMem=  3758096384 cpu:               2.3 elap:               0.1
 (Enter /usr/site/hpc/x86_64/glibc-2.17/broadwell/gaussian/g16_a.03/pgi-16.5/g16/l202.exe)
                          Input orientation:                          
 ---------------------------------------------------------------------
 Center     Atomic      Atomic             Coordinates (Angstroms)
 Number     Number       Type             X           Y           Z
 ---------------------------------------------------------------------
      1          8           0        0.000000    0.000000    0.000000
      2          6           0        0.000000    0.000000    1.338592
      3          8           0        1.141629    0.000000    1.871064
      4          8           0       -1.141629    0.000000    1.871064
 ---------------------------------------------------------------------
                    Distance matrix (angstroms):
                    1          2          3          4
     1  O    0.000000
     2  C    1.338592   0.000000
     3  O    2.191848   1.259700   0.000000
     4  O    2.191848   1.259700   2.283259   0.000000
 Stoichiometry    CO3(1-,2)
 Framework group  C2V[C2(CO),SGV(O2)]
 Deg. of freedom     3
 Full point group                 C2V     NOp   4
 Largest Abelian subgroup         C2V     NOp   4
 Largest concise Abelian subgroup C2      NOp   2
                         Standard orientation:                         
 ---------------------------------------------------------------------
 Center     Atomic      Atomic             Coordinates (Angstroms)
 Number     Number       Type             X           Y           Z
 ---------------------------------------------------------------------
      1          8           0        0.000000    0.000000    1.265619
      2          6           0        0.000000   -0.000000   -0.072973
      3          8           0        0.000000    1.141629   -0.605445
      4          8           0       -0.000000   -1.141629   -0.605445
 ---------------------------------------------------------------------
 Rotational constants (GHZ):          13.5089353          12.1214603           6.3888215
 Leave Link  202 at Wed Feb 23 15:11:23 2022, MaxMem=  3758096384 cpu:               0.3 elap:               0.0
 (Enter /usr/site/hpc/x86_64/glibc-2.17/broadwell/gaussian/g16_a.03/pgi-16.5/g16/l301.exe)
 Standard basis: Aug-CC-pVDZ (5D, 7F)
 Ernie: Thresh=  0.10000D-02 Tol=  0.10000D-05 Strict=F.
 Ernie:  8 primitive shells out of 100 were deleted.
 There are    44 symmetry adapted cartesian basis functions of A1  symmetry.
 There are    11 symmetry adapted cartesian basis functions of A2  symmetry.
 There are    17 symmetry adapted cartesian basis functions of B1  symmetry.
 There are    28 symmetry adapted cartesian basis functions of B2  symmetry.
 There are    38 symmetry adapted basis functions of A1  symmetry.
 There are    11 symmetry adapted basis functions of A2  symmetry.
 There are    17 symmetry adapted basis functions of B1  symmetry.
 There are    26 symmetry adapted basis functions of B2  symmetry.
    92 basis functions,   172 primitive gaussians,   100 cartesian basis functions
    16 alpha electrons       15 beta electrons
       nuclear repulsion energy       105.0393030199 Hartrees.
 IExCor=    0 DFT=F Ex=HF Corr=None ExCW=0 ScaHFX=  1.000000
 ScaDFX=  1.000000  1.000000  1.000000  1.000000 ScalE2=  1.000000  1.000000
 IRadAn=      5 IRanWt=     -1 IRanGd=            0 ICorTp=0 IEmpDi=  4
 NAtoms=    4 NActive=    4 NUniq=    3 SFac= 1.78D+00 NAtFMM=   60 NAOKFM=F Big=F
 Integral buffers will be    131072 words long.
 Raffenetti 2 integral format.
 Two-electron integral symmetry is turned on.
 Leave Link  301 at Wed Feb 23 15:11:23 2022, MaxMem=  3758096384 cpu:               2.6 elap:               0.1
 (Enter /usr/site/hpc/x86_64/glibc-2.17/broadwell/gaussian/g16_a.03/pgi-16.5/g16/l302.exe)
 NPDir=0 NMtPBC=     1 NCelOv=     1 NCel=       1 NClECP=     1 NCelD=      1
         NCelK=      1 NCelE2=     1 NClLst=     1 CellRange=     0.0.
 One-electron integrals computed using PRISM.
 One-electron integral symmetry used in STVInt
 NBasis=    92 RedAO= T EigKep=  1.29D-03  NBF=    38    11    17    26
 NBsUse=    92 1.00D-06 EigRej= -1.00D+00 NBFU=    38    11    17    26
 Leave Link  302 at Wed Feb 23 15:11:24 2022, MaxMem=  3758096384 cpu:               9.9 elap:               0.4
 (Enter /usr/site/hpc/x86_64/glibc-2.17/broadwell/gaussian/g16_a.03/pgi-16.5/g16/l303.exe)
 DipDrv:  MaxL=1.
 Leave Link  303 at Wed Feb 23 15:11:24 2022, MaxMem=  3758096384 cpu:               0.7 elap:               0.0
 (Enter /usr/site/hpc/x86_64/glibc-2.17/broadwell/gaussian/g16_a.03/pgi-16.5/g16/l401.exe)
 ExpMin= 4.04D-02 ExpMax= 1.17D+04 ExpMxC= 4.01D+02 IAcc=3 IRadAn=         5 AccDes= 0.00D+00
 Harris functional with IExCor=  205 and IRadAn=       5 diagonalized for initial guess.
 HarFok:  IExCor=  205 AccDes= 0.00D+00 IRadAn=         5 IDoV= 1 UseB2=F ITyADJ=14
 ICtDFT=  3500011 ScaDFX=  1.000000  1.000000  1.000000  1.000000
 FoFCou: FMM=F IPFlag=           0 FMFlag=      100000 FMFlg1=           0
         NFxFlg=           0 DoJE=T BraDBF=F KetDBF=T FulRan=T
         wScrn=  0.000000 ICntrl=       500 IOpCl=  0 I1Cent=   200000004 NGrid=           0
         NMat0=    1 NMatS0=      1 NMatT0=    0 NMatD0=    1 NMtDS0=    0 NMtDT0=    0
 Petite list used in FoFCou.
 Harris En= -262.711108151186    
 JPrj=0 DoOrth=F DoCkMO=F.
 Initial guess orbital symmetries:
 Alpha Orbitals:
       Occupied  (A1) (B2) (A1) (A1) (A1) (B2) (A1) (A1) (B2) (A1)
                 (B1) (B2) (A1) (A2) (B1) (B2)
       Virtual   (B1) (A1) (A1) (B2) (B1) (A1) (B2) (A1) (A2) (B1)
                 (A1) (B2) (B1) (B2) (A1) (A1) (A1) (B2) (A1) (B1)
                 (B2) (A1) (A2) (A1) (B2) (B1) (B2) (A1) (A1) (B2)
                 (A2) (A1) (B1) (A2) (A2) (A1) (B1) (B2) (B1) (B2)
                 (A1) (A1) (B2) (A1) (B1) (A2) (B1) (B2) (A1) (B2)
                 (A1) (A1) (B2) (B1) (A2) (A1) (B2) (A1) (B2) (A1)
                 (A1) (A2) (B1) (A2) (B2) (B1) (A1) (B2) (A1) (B1)
                 (A2) (A1) (B2) (A1) (B2) (A1)
 Beta  Orbitals:
       Occupied  (A1) (B2) (A1) (A1) (A1) (B2) (A1) (A1) (B2) (A1)
                 (B1) (B2) (A1) (A2) (B1)
       Virtual   (B2) (B1) (A1) (A1) (B2) (B1) (A1) (B2) (A1) (A2)
                 (B1) (A1) (B2) (B1) (B2) (A1) (A1) (A1) (B2) (A1)
                 (B1) (B2) (A1) (A2) (A1) (B2) (B1) (B2) (A1) (A1)
                 (B2) (A2) (A1) (B1) (A2) (A2) (A1) (B1) (B2) (B1)
                 (B2) (A1) (A1) (B2) (A1) (B1) (A2) (B1) (B2) (A1)
                 (B2) (A1) (A1) (B2) (B1) (A2) (A1) (B2) (A1) (B2)
                 (A1) (A1) (A2) (B1) (A2) (B2) (B1) (A1) (B2) (A1)
                 (B1) (A2) (A1) (B2) (A1) (B2) (A1)
 The electronic state of the initial guess is 2-B2.
 Initial guess <Sx>= 0.0000 <Sy>= 0.0000 <Sz>= 0.5000 <S**2>= 0.7500 S= 0.5000
 Leave Link  401 at Wed Feb 23 15:11:24 2022, MaxMem=  3758096384 cpu:               3.8 elap:               0.2
 (Enter /usr/site/hpc/x86_64/glibc-2.17/broadwell/gaussian/g16_a.03/pgi-16.5/g16/l502.exe)
 Keep R1 and R2 ints in memory in symmetry-blocked form, NReq=15067539.
 FoFCou: FMM=F IPFlag=           0 FMFlag=           0 FMFlg1=           0
         NFxFlg=           0 DoJE=F BraDBF=F KetDBF=F FulRan=T
         wScrn=  0.000000 ICntrl=       600 IOpCl=  0 I1Cent=           0 NGrid=           0
         NMat0=    1 NMatS0=   4278 NMatT0=    0 NMatD0=    1 NMtDS0=    0 NMtDT0=    0
 Petite list used in FoFCou.
 UHF open shell SCF:
 Using DIIS extrapolation, IDIIS=  1040.
 NGot=  3758096384 LenX=  3753348984 LenY=  3753338543
 Requested convergence on RMS density matrix=1.00D-08 within  32 cycles.
 Requested convergence on MAX density matrix=1.00D-06.
 Requested convergence on             energy=1.00D-06.
 No special actions if energy rises.

 Cycle   1  Pass 1  IDiag  1:
 E= -262.349026073564    
 DIIS: error= 4.79D-02 at cycle   1 NSaved=   1.
 NSaved= 1 IEnMin= 1 EnMin= -262.349026073564     IErMin= 1 ErrMin= 4.79D-02
 ErrMax= 4.79D-02  0.00D+00 EMaxC= 1.00D-01 BMatC= 8.46D-01 BMatP= 8.46D-01
 IDIUse=3 WtCom= 5.21D-01 WtEn= 4.79D-01
 Coeff-Com:  0.100D+01
 Coeff-En:   0.100D+01
 Coeff:      0.100D+01
 Gap=     0.426 Goal=   None    Shift=    0.000
 Gap=     0.366 Goal=   None    Shift=    0.000
 GapD=    0.366 DampG=1.000 DampE=0.500 DampFc=0.5000 IDamp=-1.
 Damping current iteration by 5.00D-01
 RMSDP=4.31D-03 MaxDP=8.73D-02              OVMax= 1.54D-01

 Cycle   2  Pass 1  IDiag  1:
 E= -262.418000792727     Delta-E=       -0.068974719162 Rises=F Damp=T
 DIIS: error= 1.76D-02 at cycle   2 NSaved=   2.
 NSaved= 2 IEnMin= 2 EnMin= -262.418000792727     IErMin= 2 ErrMin= 1.76D-02
 ErrMax= 1.76D-02  0.00D+00 EMaxC= 1.00D-01 BMatC= 1.58D-01 BMatP= 8.46D-01
 IDIUse=3 WtCom= 8.24D-01 WtEn= 1.76D-01
 Coeff-Com: -0.503D+00 0.150D+01
 Coeff-En:   0.000D+00 0.100D+01
 Coeff:     -0.414D+00 0.141D+01
 Gap=     0.493 Goal=   None    Shift=    0.000
 Gap=     0.401 Goal=   None    Shift=    0.000
 RMSDP=2.02D-03 MaxDP=6.42D-02 DE=-6.90D-02 OVMax= 8.71D-02

 Cycle   3  Pass 1  IDiag  1:
 E= -262.491424550816     Delta-E=       -0.073423758089 Rises=F Damp=F
 DIIS: error= 6.58D-03 at cycle   3 NSaved=   3.
 NSaved= 3 IEnMin= 3 EnMin= -262.491424550816     IErMin= 3 ErrMin= 6.58D-03
 ErrMax= 6.58D-03  0.00D+00 EMaxC= 1.00D-01 BMatC= 1.47D-02 BMatP= 1.58D-01
 IDIUse=3 WtCom= 9.34D-01 WtEn= 6.58D-02
 Coeff-Com: -0.135D+00 0.225D+00 0.911D+00
 Coeff-En:   0.000D+00 0.000D+00 0.100D+01
 Coeff:     -0.126D+00 0.210D+00 0.916D+00
 Gap=     0.480 Goal=   None    Shift=    0.000
 Gap=     0.378 Goal=   None    Shift=    0.000
 RMSDP=7.96D-04 MaxDP=2.38D-02 DE=-7.34D-02 OVMax= 7.04D-02

 Cycle   4  Pass 1  IDiag  1:
 E= -262.500537034924     Delta-E=       -0.009112484108 Rises=F Damp=F
 DIIS: error= 9.71D-03 at cycle   4 NSaved=   4.
 NSaved= 4 IEnMin= 4 EnMin= -262.500537034924     IErMin= 3 ErrMin= 6.58D-03
 ErrMax= 9.71D-03  0.00D+00 EMaxC= 1.00D-01 BMatC= 4.42D-03 BMatP= 1.47D-02
 IDIUse=3 WtCom= 9.03D-01 WtEn= 9.71D-02
 Coeff-Com:  0.218D-02-0.182D-01 0.212D-02 0.101D+01
 Coeff-En:   0.000D+00 0.000D+00 0.000D+00 0.100D+01
 Coeff:      0.197D-02-0.165D-01 0.192D-02 0.101D+01
 Gap=     0.473 Goal=   None    Shift=    0.000
 Gap=     0.399 Goal=   None    Shift=    0.000
 RMSDP=6.84D-04 MaxDP=2.27D-02 DE=-9.11D-03 OVMax= 8.76D-02

 Cycle   5  Pass 1  IDiag  1:
 E= -262.507214935720     Delta-E=       -0.006677900796 Rises=F Damp=F
 DIIS: error= 6.81D-03 at cycle   5 NSaved=   5.
 NSaved= 5 IEnMin= 5 EnMin= -262.507214935720     IErMin= 3 ErrMin= 6.58D-03
 ErrMax= 6.81D-03  0.00D+00 EMaxC= 1.00D-01 BMatC= 4.56D-03 BMatP= 4.42D-03
 IDIUse=3 WtCom= 9.32D-01 WtEn= 6.81D-02
 Coeff-Com:  0.166D-01-0.335D-02-0.394D+00 0.397D+00 0.983D+00
 Coeff-En:   0.000D+00 0.000D+00 0.000D+00 0.000D+00 0.100D+01
 Coeff:      0.154D-01-0.312D-02-0.367D+00 0.370D+00 0.985D+00
 Gap=     0.460 Goal=   None    Shift=    0.000
 Gap=     0.412 Goal=   None    Shift=    0.000
 RMSDP=7.21D-04 MaxDP=1.56D-02 DE=-6.68D-03 OVMax= 8.05D-02

 Cycle   6  Pass 1  IDiag  1:
 E= -262.512998169133     Delta-E=       -0.005783233413 Rises=F Damp=F
 DIIS: error= 5.98D-03 at cycle   6 NSaved=   6.
 NSaved= 6 IEnMin= 6 EnMin= -262.512998169133     IErMin= 6 ErrMin= 5.98D-03
 ErrMax= 5.98D-03  0.00D+00 EMaxC= 1.00D-01 BMatC= 1.94D-03 BMatP= 4.42D-03
 IDIUse=3 WtCom= 9.40D-01 WtEn= 5.98D-02
 Coeff-Com: -0.519D-01 0.950D-01 0.334D+00-0.333D+00-0.120D+01 0.216D+01
 Coeff-En:   0.000D+00 0.000D+00 0.000D+00 0.000D+00 0.000D+00 0.100D+01
 Coeff:     -0.488D-01 0.893D-01 0.314D+00-0.313D+00-0.113D+01 0.209D+01
 Gap=     0.453 Goal=   None    Shift=    0.000
 Gap=     0.427 Goal=   None    Shift=    0.000
 RMSDP=7.62D-04 MaxDP=1.95D-02 DE=-5.78D-03 OVMax= 9.10D-02

 Cycle   7  Pass 1  IDiag  1:
 E= -262.517075015274     Delta-E=       -0.004076846141 Rises=F Damp=F
 DIIS: error= 2.84D-03 at cycle   7 NSaved=   7.
 NSaved= 7 IEnMin= 7 EnMin= -262.517075015274     IErMin= 7 ErrMin= 2.84D-03
 ErrMax= 2.84D-03  0.00D+00 EMaxC= 1.00D-01 BMatC= 7.51D-04 BMatP= 1.94D-03
 IDIUse=3 WtCom= 9.72D-01 WtEn= 2.84D-02
 Coeff-Com: -0.324D-01 0.388D-01 0.387D+00 0.879D-03-0.118D+01 0.307D+00
 Coeff-Com:  0.148D+01
 Coeff-En:   0.000D+00 0.000D+00 0.000D+00 0.000D+00 0.000D+00 0.000D+00
 Coeff-En:   0.100D+01
 Coeff:     -0.315D-01 0.377D-01 0.376D+00 0.854D-03-0.114D+01 0.298D+00
 Coeff:      0.146D+01
 Gap=     0.443 Goal=   None    Shift=    0.000
 Gap=     0.436 Goal=   None    Shift=    0.000
 RMSDP=4.90D-04 MaxDP=1.49D-02 DE=-4.08D-03 OVMax= 5.51D-02

 Cycle   8  Pass 1  IDiag  1:
 E= -262.518231577101     Delta-E=       -0.001156561827 Rises=F Damp=F
 DIIS: error= 6.82D-04 at cycle   8 NSaved=   8.
 NSaved= 8 IEnMin= 8 EnMin= -262.518231577101     IErMin= 8 ErrMin= 6.82D-04
 ErrMax= 6.82D-04  0.00D+00 EMaxC= 1.00D-01 BMatC= 1.03D-04 BMatP= 7.51D-04
 IDIUse=3 WtCom= 9.93D-01 WtEn= 6.82D-03
 Coeff-Com:  0.152D-01-0.220D-01-0.157D+00 0.147D+00 0.240D+00-0.219D+00
 Coeff-Com: -0.510D+00 0.151D+01
 Coeff-En:   0.000D+00 0.000D+00 0.000D+00 0.000D+00 0.000D+00 0.000D+00
 Coeff-En:   0.000D+00 0.100D+01
 Coeff:      0.151D-01-0.218D-01-0.156D+00 0.146D+00 0.238D+00-0.217D+00
 Coeff:     -0.507D+00 0.150D+01
 Gap=     0.439 Goal=   None    Shift=    0.000
 Gap=     0.434 Goal=   None    Shift=    0.000
 RMSDP=1.88D-04 MaxDP=5.43D-03 DE=-1.16D-03 OVMax= 1.77D-02

 Cycle   9  Pass 1  IDiag  1:
 E= -262.518313252107     Delta-E=       -0.000081675006 Rises=F Damp=F
 DIIS: error= 3.56D-04 at cycle   9 NSaved=   9.
 NSaved= 9 IEnMin= 9 EnMin= -262.518313252107     IErMin= 9 ErrMin= 3.56D-04
 ErrMax= 3.56D-04  0.00D+00 EMaxC= 1.00D-01 BMatC= 2.11D-05 BMatP= 1.03D-04
 IDIUse=3 WtCom= 9.96D-01 WtEn= 3.56D-03
 Coeff-Com: -0.330D-02 0.535D-02 0.295D-01-0.730D-01 0.140D+00-0.420D-01
 Coeff-Com:  0.122D+00-0.631D+00 0.145D+01
 Coeff-En:   0.000D+00 0.000D+00 0.000D+00 0.000D+00 0.000D+00 0.000D+00
 Coeff-En:   0.000D+00 0.000D+00 0.100D+01
 Coeff:     -0.329D-02 0.533D-02 0.294D-01-0.727D-01 0.139D+00-0.418D-01
 Coeff:      0.122D+00-0.629D+00 0.145D+01
 Gap=     0.440 Goal=   None    Shift=    0.000
 Gap=     0.437 Goal=   None    Shift=    0.000
 RMSDP=9.89D-05 MaxDP=1.57D-03 DE=-8.17D-05 OVMax= 9.67D-03

 Cycle  10  Pass 1  IDiag  1:
 E= -262.518314532483     Delta-E=       -0.000001280376 Rises=F Damp=F
 DIIS: error= 2.55D-04 at cycle  10 NSaved=  10.
 NSaved=10 IEnMin=10 EnMin= -262.518314532483     IErMin=10 ErrMin= 2.55D-04
 ErrMax= 2.55D-04  0.00D+00 EMaxC= 1.00D-01 BMatC= 2.01D-05 BMatP= 2.11D-05
 IDIUse=3 WtCom= 9.97D-01 WtEn= 2.55D-03
 Coeff-Com: -0.377D-02 0.570D-02 0.309D-01 0.725D-03-0.166D+00 0.105D+00
 Coeff-Com:  0.569D-01-0.219D+00 0.134D-01 0.118D+01
 Coeff-En:   0.000D+00 0.000D+00 0.000D+00 0.000D+00 0.000D+00 0.000D+00
 Coeff-En:   0.000D+00 0.000D+00 0.000D+00 0.100D+01
 Coeff:     -0.376D-02 0.569D-02 0.308D-01 0.723D-03-0.165D+00 0.105D+00
 Coeff:      0.568D-01-0.218D+00 0.133D-01 0.118D+01
 Gap=     0.438 Goal=   None    Shift=    0.000
 Gap=     0.436 Goal=   None    Shift=    0.000
 RMSDP=7.36D-05 MaxDP=1.63D-03 DE=-1.28D-06 OVMax= 7.16D-03

 Cycle  11  Pass 1  IDiag  1:
 E= -262.518327080197     Delta-E=       -0.000012547714 Rises=F Damp=F
 DIIS: error= 1.18D-04 at cycle  11 NSaved=  11.
 NSaved=11 IEnMin=11 EnMin= -262.518327080197     IErMin=11 ErrMin= 1.18D-04
 ErrMax= 1.18D-04  0.00D+00 EMaxC= 1.00D-01 BMatC= 1.93D-06 BMatP= 2.01D-05
 IDIUse=3 WtCom= 9.99D-01 WtEn= 1.18D-03
 Coeff-Com:  0.182D-02-0.303D-02-0.102D-01 0.884D-02 0.209D-01-0.180D-01
 Coeff-Com: -0.240D-01 0.151D+00-0.392D+00-0.146D+00 0.141D+01
 Coeff-En:   0.000D+00 0.000D+00 0.000D+00 0.000D+00 0.000D+00 0.000D+00
 Coeff-En:   0.000D+00 0.000D+00 0.000D+00 0.000D+00 0.100D+01
 Coeff:      0.182D-02-0.302D-02-0.102D-01 0.883D-02 0.208D-01-0.179D-01
 Coeff:     -0.240D-01 0.151D+00-0.392D+00-0.145D+00 0.141D+01
 Gap=     0.438 Goal=   None    Shift=    0.000
 Gap=     0.436 Goal=   None    Shift=    0.000
 RMSDP=1.54D-05 MaxDP=4.33D-04 DE=-1.25D-05 OVMax= 1.21D-03

 Cycle  12  Pass 1  IDiag  1:
 E= -262.518328465638     Delta-E=       -0.000001385441 Rises=F Damp=F
 DIIS: error= 2.72D-05 at cycle  12 NSaved=  12.
 NSaved=12 IEnMin=12 EnMin= -262.518328465638     IErMin=12 ErrMin= 2.72D-05
 ErrMax= 2.72D-05  0.00D+00 EMaxC= 1.00D-01 BMatC= 1.28D-07 BMatP= 1.93D-06
 IDIUse=1 WtCom= 1.00D+00 WtEn= 0.00D+00
 Coeff-Com: -0.179D-03 0.378D-03-0.120D-02-0.341D-02 0.233D-01-0.147D-01
 Coeff-Com: -0.289D-03-0.120D-01 0.150D+00-0.145D+00-0.675D+00 0.168D+01
 Coeff:     -0.179D-03 0.378D-03-0.120D-02-0.341D-02 0.233D-01-0.147D-01
 Coeff:     -0.289D-03-0.120D-01 0.150D+00-0.145D+00-0.675D+00 0.168D+01
 Gap=     0.438 Goal=   None    Shift=    0.000
 Gap=     0.437 Goal=   None    Shift=    0.000
 RMSDP=8.32D-06 MaxDP=1.94D-04 DE=-1.39D-06 OVMax= 6.57D-04

 Cycle  13  Pass 1  IDiag  1:
 E= -262.518328525116     Delta-E=       -0.000000059478 Rises=F Damp=F
 DIIS: error= 2.39D-05 at cycle  13 NSaved=  13.
 NSaved=13 IEnMin=13 EnMin= -262.518328525116     IErMin=13 ErrMin= 2.39D-05
 ErrMax= 2.39D-05  0.00D+00 EMaxC= 1.00D-01 BMatC= 1.65D-07 BMatP= 1.28D-07
 IDIUse=1 WtCom= 1.00D+00 WtEn= 0.00D+00
 Coeff-Com: -0.275D-03 0.439D-03 0.195D-02-0.128D-02-0.535D-02 0.460D-02
 Coeff-Com:  0.427D-02-0.280D-01 0.670D-01-0.392D-01-0.446D-01-0.263D+00
 Coeff-Com:  0.130D+01
 Coeff:     -0.275D-03 0.439D-03 0.195D-02-0.128D-02-0.535D-02 0.460D-02
 Coeff:      0.427D-02-0.280D-01 0.670D-01-0.392D-01-0.446D-01-0.263D+00
 Coeff:      0.130D+01
 Gap=     0.438 Goal=   None    Shift=    0.000
 Gap=     0.437 Goal=   None    Shift=    0.000
 RMSDP=4.99D-06 MaxDP=1.04D-04 DE=-5.95D-08 OVMax= 4.65D-04

 Cycle  14  Pass 1  IDiag  1:
 E= -262.518328626162     Delta-E=       -0.000000101046 Rises=F Damp=F
 DIIS: error= 2.04D-06 at cycle  14 NSaved=  14.
 NSaved=14 IEnMin=14 EnMin= -262.518328626162     IErMin=14 ErrMin= 2.04D-06
 ErrMax= 2.04D-06  0.00D+00 EMaxC= 1.00D-01 BMatC= 1.14D-09 BMatP= 1.28D-07
 IDIUse=1 WtCom= 1.00D+00 WtEn= 0.00D+00
 Coeff-Com:  0.774D-04-0.135D-03-0.175D-03-0.373D-04 0.875D-03-0.554D-03
 Coeff-Com:  0.142D-03 0.402D-02-0.208D-01 0.200D-01 0.381D-01 0.255D-02
 Coeff-Com: -0.501D+00 0.146D+01
 Coeff:      0.774D-04-0.135D-03-0.175D-03-0.373D-04 0.875D-03-0.554D-03
 Coeff:      0.142D-03 0.402D-02-0.208D-01 0.200D-01 0.381D-01 0.255D-02
 Coeff:     -0.501D+00 0.146D+01
 Gap=     0.438 Goal=   None    Shift=    0.000
 Gap=     0.437 Goal=   None    Shift=    0.000
 RMSDP=4.87D-07 MaxDP=1.25D-05 DE=-1.01D-07 OVMax= 2.91D-05

 Cycle  15  Pass 1  IDiag  1:
 E= -262.518328627125     Delta-E=       -0.000000000963 Rises=F Damp=F
 DIIS: error= 6.42D-07 at cycle  15 NSaved=  15.
 NSaved=15 IEnMin=15 EnMin= -262.518328627125     IErMin=15 ErrMin= 6.42D-07
 ErrMax= 6.42D-07  0.00D+00 EMaxC= 1.00D-01 BMatC= 9.23D-11 BMatP= 1.14D-09
 IDIUse=1 WtCom= 1.00D+00 WtEn= 0.00D+00
 Coeff-Com: -0.202D-04 0.377D-04-0.593D-04 0.541D-04 0.331D-03-0.350D-03
 Coeff-Com: -0.265D-03 0.160D-03 0.530D-02-0.738D-02-0.142D-01 0.206D-01
 Coeff-Com:  0.128D+00-0.663D+00 0.153D+01
 Coeff:     -0.202D-04 0.377D-04-0.593D-04 0.541D-04 0.331D-03-0.350D-03
 Coeff:     -0.265D-03 0.160D-03 0.530D-02-0.738D-02-0.142D-01 0.206D-01
 Coeff:      0.128D+00-0.663D+00 0.153D+01
 Gap=     0.438 Goal=   None    Shift=    0.000
 Gap=     0.437 Goal=   None    Shift=    0.000
 RMSDP=1.79D-07 MaxDP=5.05D-06 DE=-9.63D-10 OVMax= 1.02D-05

 Cycle  16  Pass 1  IDiag  1:
 E= -262.518328627159     Delta-E=       -0.000000000034 Rises=F Damp=F
 DIIS: error= 4.15D-07 at cycle  16 NSaved=  16.
 NSaved=16 IEnMin=16 EnMin= -262.518328627159     IErMin=16 ErrMin= 4.15D-07
 ErrMax= 4.15D-07  0.00D+00 EMaxC= 1.00D-01 BMatC= 7.05D-11 BMatP= 9.23D-11
 IDIUse=1 WtCom= 1.00D+00 WtEn= 0.00D+00
 Coeff-Com:  0.347D-05-0.656D-05 0.251D-04-0.749D-04 0.142D-03 0.346D-05
 Coeff-Com:  0.122D-03-0.669D-03 0.925D-03-0.127D-02 0.145D-02 0.148D-02
 Coeff-Com: -0.281D-01 0.158D+00-0.644D+00 0.151D+01
 Coeff:      0.347D-05-0.656D-05 0.251D-04-0.749D-04 0.142D-03 0.346D-05
 Coeff:      0.122D-03-0.669D-03 0.925D-03-0.127D-02 0.145D-02 0.148D-02
 Coeff:     -0.281D-01 0.158D+00-0.644D+00 0.151D+01
 Gap=     0.438 Goal=   None    Shift=    0.000
 Gap=     0.437 Goal=   None    Shift=    0.000
 RMSDP=6.58D-08 MaxDP=1.15D-06 DE=-3.41D-11 OVMax= 5.25D-06

 Cycle  17  Pass 1  IDiag  1:
 E= -262.518328627194     Delta-E=       -0.000000000034 Rises=F Damp=F
 DIIS: error= 1.67D-07 at cycle  17 NSaved=  17.
 NSaved=17 IEnMin=17 EnMin= -262.518328627194     IErMin=17 ErrMin= 1.67D-07
 ErrMax= 1.67D-07  0.00D+00 EMaxC= 1.00D-01 BMatC= 1.31D-11 BMatP= 7.05D-11
 IDIUse=1 WtCom= 1.00D+00 WtEn= 0.00D+00
 Coeff-Com: -0.123D-05 0.226D-05-0.531D-05 0.740D-05 0.144D-04-0.391D-04
 Coeff-Com: -0.169D-04 0.176D-03-0.935D-04-0.178D-03-0.843D-04 0.499D-03
 Coeff-Com:  0.404D-02-0.406D-01 0.228D+00-0.774D+00 0.158D+01
 Coeff:     -0.123D-05 0.226D-05-0.531D-05 0.740D-05 0.144D-04-0.391D-04
 Coeff:     -0.169D-04 0.176D-03-0.935D-04-0.178D-03-0.843D-04 0.499D-03
 Coeff:      0.404D-02-0.406D-01 0.228D+00-0.774D+00 0.158D+01
 Gap=     0.438 Goal=   None    Shift=    0.000
 Gap=     0.437 Goal=   None    Shift=    0.000
 RMSDP=4.90D-08 MaxDP=1.00D-06 DE=-3.43D-11 OVMax= 4.84D-06

 Cycle  18  Pass 1  IDiag  1:
 E= -262.518328627202     Delta-E=       -0.000000000009 Rises=F Damp=F
 DIIS: error= 1.40D-08 at cycle  18 NSaved=  18.
 NSaved=18 IEnMin=18 EnMin= -262.518328627202     IErMin=18 ErrMin= 1.40D-08
 ErrMax= 1.40D-08  0.00D+00 EMaxC= 1.00D-01 BMatC= 4.49D-14 BMatP= 1.31D-11
 IDIUse=1 WtCom= 1.00D+00 WtEn= 0.00D+00
 Coeff-Com:  0.512D-06-0.869D-06-0.322D-06-0.259D-05 0.683D-05 0.748D-05
 Coeff-Com:  0.364D-05-0.655D-04 0.662D-04 0.665D-04-0.142D-03-0.497D-05
 Coeff-Com: -0.473D-03 0.104D-01-0.748D-01 0.303D+00-0.810D+00 0.157D+01
 Coeff:      0.512D-06-0.869D-06-0.322D-06-0.259D-05 0.683D-05 0.748D-05
 Coeff:      0.364D-05-0.655D-04 0.662D-04 0.665D-04-0.142D-03-0.497D-05
 Coeff:     -0.473D-03 0.104D-01-0.748D-01 0.303D+00-0.810D+00 0.157D+01
 Gap=     0.438 Goal=   None    Shift=    0.000
 Gap=     0.437 Goal=   None    Shift=    0.000
 RMSDP=3.63D-09 MaxDP=1.16D-07 DE=-8.75D-12 OVMax= 2.47D-07

 SCF Done:  E(UHF) =  -262.518328627     A.U. after   18 cycles
            NFock= 18  Conv=0.36D-08     -V/T= 2.0013
 <Sx>= 0.0000 <Sy>= 0.0000 <Sz>= 0.5000 <S**2>= 0.7606 S= 0.5053
 <L.S>= 0.000000000000E+00
 KE= 2.621756927086D+02 PE=-8.395614799120D+02 EE= 2.098281555562D+02
 Annihilation of the first spin contaminant:
 S**2 before annihilation     0.7606,   after     0.7501
 Leave Link  502 at Wed Feb 23 15:11:25 2022, MaxMem=  3758096384 cpu:              20.0 elap:               0.8
 (Enter /usr/site/hpc/x86_64/glibc-2.17/broadwell/gaussian/g16_a.03/pgi-16.5/g16/l508.exe)
 QCSCF skips out because SCF is already converged.
 Leave Link  508 at Wed Feb 23 15:11:25 2022, MaxMem=  3758096384 cpu:               0.6 elap:               0.0
 (Enter /usr/site/hpc/x86_64/glibc-2.17/broadwell/gaussian/g16_a.03/pgi-16.5/g16/l601.exe)
 Copying SCF densities to generalized density rwf, IOpCl= 1 IROHF=0.

 **********************************************************************

            Population analysis using the SCF density.

 **********************************************************************

 Orbital symmetries:
 Alpha Orbitals:
       Occupied  (A1) (B2) (A1) (A1) (A1) (A1) (B2) (A1) (B2) (A1)
                 (B1) (B2) (B1) (A1) (B2) (A2)
       Virtual   (A1) (B1) (B2) (A1) (A1) (B2) (B1) (A1) (A2) (B1)
                 (B2) (B2) (A1) (A1) (B1) (A1) (B2) (A1) (B1) (A2)
                 (A1) (A1) (B2) (A1) (B1) (B2) (A1) (B2) (A1) (A2)
                 (B2) (B1) (A1) (A2) (A2) (A1) (B2) (B1) (A1) (B2)
                 (B1) (A1) (A1) (B2) (B1) (A2) (B1) (B2) (A1) (B2)
                 (A1) (A1) (B2) (B1) (A2) (A1) (B2) (A1) (A1) (B2)
                 (A1) (A2) (A1) (B1) (B2) (A2) (B1) (B2) (A1) (B1)
                 (A1) (A2) (B2) (A1) (B2) (A1)
 Beta  Orbitals:
       Occupied  (A1) (B2) (A1) (A1) (A1) (B2) (A1) (A1) (A1) (B1)
                 (B2) (B1) (A1) (B2) (A2)
       Virtual   (A1) (B2) (B1) (A1) (B2) (A1) (B2) (B1) (A1) (A2)
                 (B1) (B2) (A1) (B2) (A1) (B1) (A1) (B2) (A1) (B1)
                 (A2) (A1) (A1) (A1) (B2) (B1) (B2) (A1) (B2) (A1)
                 (A2) (B2) (B1) (A1) (A2) (A2) (A1) (B1) (B2) (A1)
                 (B2) (B1) (A1) (A1) (B2) (B1) (A2) (B1) (B2) (A1)
                 (B2) (A1) (A1) (B2) (B1) (A2) (A1) (B2) (A1) (A1)
                 (B2) (A1) (A2) (B1) (A1) (A2) (B2) (B1) (B2) (A1)
                 (B1) (A2) (A1) (B2) (A1) (B2) (A1)
 The electronic state is 2-B2.
 Alpha  occ. eigenvalues --  -20.47174 -20.32126 -20.32122 -11.19996  -1.29508
 Alpha  occ. eigenvalues --   -1.13941  -1.09705  -0.58677  -0.52264  -0.46461
 Alpha  occ. eigenvalues --   -0.46031  -0.38354  -0.30812  -0.26986  -0.22631
 Alpha  occ. eigenvalues --   -0.21717
 Alpha virt. eigenvalues --    0.22107   0.23405   0.23499   0.23786   0.35825
 Alpha virt. eigenvalues --    0.37018   0.38355   0.39516   0.40071   0.43652
 Alpha virt. eigenvalues --    0.44181   0.45939   0.46263   0.49650   0.50678
 Alpha virt. eigenvalues --    0.55372   0.56726   0.67037   0.78611   0.81038
 Alpha virt. eigenvalues --    0.84106   0.89301   0.91995   0.94860   0.98116
 Alpha virt. eigenvalues --    0.98919   1.05524   1.09004   1.10283   1.27456
 Alpha virt. eigenvalues --    1.28492   1.30526   1.30999   1.36984   1.39757
 Alpha virt. eigenvalues --    1.40674   1.43152   1.44259   1.51610   1.53468
 Alpha virt. eigenvalues --    1.54358   1.60493   1.66284   1.67355   1.76956
 Alpha virt. eigenvalues --    1.92179   1.94376   1.96989   2.08252   2.11417
 Alpha virt. eigenvalues --    2.16198   2.25191   2.29071   2.30281   2.40097
 Alpha virt. eigenvalues --    2.58192   2.68888   2.81486   3.18383   3.25768
 Alpha virt. eigenvalues --    3.37991   3.74462   3.78470   3.85463   3.85521
 Alpha virt. eigenvalues --    3.89846   3.92100   3.93321   3.96017   3.98008
 Alpha virt. eigenvalues --    4.02470   4.02759   4.10554   4.17534   4.33925
 Alpha virt. eigenvalues --    4.38657
  Beta  occ. eigenvalues --  -20.43025 -20.31793 -20.31790 -11.20208  -1.22622
  Beta  occ. eigenvalues --   -1.08637  -1.05865  -0.54859  -0.45322  -0.43638
  Beta  occ. eigenvalues --   -0.41429  -0.28129  -0.23561  -0.22114  -0.21449
  Beta virt. eigenvalues --    0.22212   0.22704   0.23412   0.23798   0.27753
  Beta virt. eigenvalues --    0.35876   0.38445   0.38550   0.39500   0.40081
  Beta virt. eigenvalues --    0.43447   0.45407   0.46358   0.46842   0.50130
  Beta virt. eigenvalues --    0.50998   0.55782   0.58030   0.67871   0.78670
  Beta virt. eigenvalues --    0.81440   0.85817   0.89459   0.95461   0.95679
  Beta virt. eigenvalues --    0.97932   1.01025   1.05849   1.09052   1.10996
  Beta virt. eigenvalues --    1.28986   1.29874   1.30901   1.33812   1.38131
  Beta virt. eigenvalues --    1.40304   1.40779   1.44314   1.48329   1.52776
  Beta virt. eigenvalues --    1.53771   1.54582   1.61459   1.66755   1.68173
  Beta virt. eigenvalues --    1.78650   1.92282   1.94461   2.05401   2.08974
  Beta virt. eigenvalues --    2.14282   2.17100   2.25786   2.29677   2.30297
  Beta virt. eigenvalues --    2.40062   2.58907   2.69695   2.81759   3.21260
  Beta virt. eigenvalues --    3.26323   3.38700   3.84085   3.87123   3.88254
  Beta virt. eigenvalues --    3.90408   3.91521   3.92721   3.93991   3.96681
  Beta virt. eigenvalues --    3.98354   4.03093   4.04324   4.12883   4.19611
  Beta virt. eigenvalues --    4.35268   4.39178
          Condensed to atoms (all electrons):
               1          2          3          4
     1  O    8.504760   0.081176  -0.052528  -0.052528
     2  C    0.081176   4.016301   0.373501   0.373501
     3  O   -0.052528   0.373501   8.568683  -0.052336
     4  O   -0.052528   0.373501  -0.052336   8.568683
          Atomic-Atomic Spin Densities.
               1          2          3          4
     1  O    1.154545  -0.074558  -0.020779  -0.020779
     2  C   -0.074558  -0.058745  -0.001422  -0.001422
     3  O   -0.020779  -0.001422   0.076367  -0.005307
     4  O   -0.020779  -0.001422  -0.005307   0.076367
 Mulliken charges and spin densities:
               1          2
     1  O   -0.480879   1.038429
     2  C    1.155520  -0.136146
     3  O   -0.837321   0.048859
     4  O   -0.837321   0.048859
 Sum of Mulliken charges =  -1.00000   1.00000
 Mulliken charges and spin densities with hydrogens summed into heavy atoms:
               1          2
     1  O   -0.480879   1.038429
     2  C    1.155520  -0.136146
     3  O   -0.837321   0.048859
     4  O   -0.837321   0.048859
 Electronic spatial extent (au):  <R**2>=            204.5139
 Charge=             -1.0000 electrons
 Dipole moment (field-independent basis, Debye):
    X=              0.0000    Y=             -0.0000    Z=              2.2011  Tot=              2.2011
 Quadrupole moment (field-independent basis, Debye-Ang):
   XX=            -23.1713   YY=            -32.9354   ZZ=            -28.9357
   XY=             -0.0000   XZ=             -0.0000   YZ=              0.0000
 Traceless Quadrupole moment (field-independent basis, Debye-Ang):
   XX=              5.1762   YY=             -4.5879   ZZ=             -0.5883
   XY=             -0.0000   XZ=             -0.0000   YZ=              0.0000
 Octapole moment (field-independent basis, Debye-Ang**2):
  XXX=              0.0000  YYY=              0.0000  ZZZ=              1.2465  XYY=              0.0000
  XXY=              0.0000  XXZ=              0.7395  XZZ=              0.0000  YZZ=              0.0000
  YYZ=              6.8855  XYZ=              0.0000
 Hexadecapole moment (field-independent basis, Debye-Ang**3):
 XXXX=            -22.0010 YYYY=           -138.6045 ZZZZ=           -114.7491 XXXY=             -0.0000
 XXXZ=             -0.0000 YYYX=             -0.0000 YYYZ=              0.0000 ZZZX=             -0.0000
 ZZZY=             -0.0000 XXYY=            -25.6048 XXZZ=            -22.5115 YYZZ=            -40.6720
 XXYZ=              0.0000 YYXZ=             -0.0000 ZZXY=             -0.0000
 N-N= 1.050393030199D+02 E-N=-8.395614800225D+02  KE= 2.621756927086D+02
 Symmetry A1   KE= 1.738682344510D+02
 Symmetry A2   KE= 4.353758328143D+00
 Symmetry B1   KE= 8.064650666553D+00
 Symmetry B2   KE= 7.588904926292D+01
 Symmetry A1   SP=-1.422366890624D-14
 Symmetry A2   SP= 5.480423591768D-15
 Symmetry B1   SP= 1.970726080494D-14
 Symmetry B2   SP= 1.000000000000D+00
                          Isotropic Fermi Contact Couplings
        Atom                 a.u.       MegaHertz       Gauss      10(-4) cm-1
     1  O(17)              0.28375    -172.01087     -61.37776     -57.37665
     2  C(13)             -0.03882     -43.63677     -15.57068     -14.55566
     3  O(17)              0.02813     -17.05468      -6.08554      -5.68883
     4  O(17)              0.02813     -17.05468      -6.08554      -5.68883
 --------------------------------------------------------
       Center         ----  Spin Dipole Couplings  ----
                      3XX-RR        3YY-RR        3ZZ-RR
 --------------------------------------------------------
     1   Atom       -1.757414      3.622296     -1.864881
     2   Atom       -0.042648     -0.008990      0.051638
     3   Atom       -0.158863     -0.142196      0.301059
     4   Atom       -0.158863     -0.142196      0.301059
 --------------------------------------------------------
                        XY            XZ            YZ
 --------------------------------------------------------
     1   Atom        0.000000     -0.000000      0.000000
     2   Atom        0.000000      0.000000      0.000000
     3   Atom        0.000000     -0.000000      0.008363
     4   Atom        0.000000     -0.000000     -0.008363
 --------------------------------------------------------


 ---------------------------------------------------------------------------------
              Anisotropic Spin Dipole Couplings in Principal Axis System
 ---------------------------------------------------------------------------------

       Atom             a.u.   MegaHertz   Gauss  10(-4) cm-1        Axes

              Baa    -1.8649   134.942    48.150    45.012  0.0000  0.0000  1.0000
     1 O(17)  Bbb    -1.7574   127.165    45.376    42.418  1.0000 -0.0000  0.0000
              Bcc     3.6223  -262.107   -93.526   -87.429  0.0000  1.0000 -0.0000
 
              Baa    -0.0426    -5.723    -2.042    -1.909  1.0000  0.0000 -0.0000
     2 C(13)  Bbb    -0.0090    -1.206    -0.430    -0.402  0.0000  1.0000 -0.0000
              Bcc     0.0516     6.929     2.473     2.311  0.0000  0.0000  1.0000
 
              Baa    -0.1589    11.495     4.102     3.834  1.0000  0.0000  0.0000
     3 O(17)  Bbb    -0.1424    10.301     3.676     3.436 -0.0000  0.9998 -0.0189
              Bcc     0.3012   -21.796    -7.777    -7.270 -0.0000  0.0189  0.9998
 
              Baa    -0.1589    11.495     4.102     3.834  1.0000 -0.0000  0.0000
     4 O(17)  Bbb    -0.1424    10.301     3.676     3.436  0.0000  0.9998  0.0189
              Bcc     0.3012   -21.796    -7.777    -7.270 -0.0000 -0.0189  0.9998
 

 ---------------------------------------------------------------------------------

 No NMR shielding tensors so no spin-rotation constants.
 Leave Link  601 at Wed Feb 23 15:11:25 2022, MaxMem=  3758096384 cpu:               9.2 elap:               0.4
 (Enter /usr/site/hpc/x86_64/glibc-2.17/broadwell/gaussian/g16_a.03/pgi-16.5/g16/l801.exe)
 Range of M.O.s used for correlation:     1    92
 NBasis=    92 NAE=    16 NBE=    15 NFC=     0 NFV=     0
 NROrb=     92 NOA=    16 NOB=    15 NVA=    76 NVB=    77
 Leave Link  801 at Wed Feb 23 15:11:25 2022, MaxMem=  3758096384 cpu:               0.5 elap:               0.0
 (Enter /usr/site/hpc/x86_64/glibc-2.17/broadwell/gaussian/g16_a.03/pgi-16.5/g16/l914.exe)
 UHF ground state
 Doing stability rather than CIS.
 Keep R1 and R2 ints in memory in symmetry-blocked form, NReq=15067879.
 FoFCou: FMM=F IPFlag=           0 FMFlag=           0 FMFlg1=           0
         NFxFlg=           0 DoJE=F BraDBF=F KetDBF=F FulRan=T
         wScrn=  0.000000 ICntrl=       600 IOpCl=  0 I1Cent=           0 NGrid=           0
         NMat0=    1 NMatS0=   4278 NMatT0=    0 NMatD0=    1 NMtDS0=    0 NMtDT0=    0
 Petite list used in FoFCou.
 MDV=  3758096384 DFT=F DoStab=T Mixed=F DoRPA=F DoScal=F NonHer=F
 Making orbital integer symmetry assigments:
 Orbital symmetries:
 Alpha Orbitals:
       Occupied  (A1) (B2) (A1) (A1) (A1) (A1) (B2) (A1) (B2) (A1)
                 (B1) (B2) (B1) (A1) (B2) (A2)
       Virtual   (A1) (B1) (B2) (A1) (A1) (B2) (B1) (A1) (A2) (B1)
                 (B2) (B2) (A1) (A1) (B1) (A1) (B2) (A1) (B1) (A2)
                 (A1) (A1) (B2) (A1) (B1) (B2) (A1) (B2) (A1) (A2)
                 (B2) (B1) (A1) (A2) (A2) (A1) (B2) (B1) (A1) (B2)
                 (B1) (A1) (A1) (B2) (B1) (A2) (B1) (B2) (A1) (B2)
                 (A1) (A1) (B2) (B1) (A2) (A1) (B2) (A1) (A1) (B2)
                 (A1) (A2) (A1) (B1) (B2) (A2) (B1) (B2) (A1) (B1)
                 (A1) (A2) (B2) (A1) (B2) (A1)
 Beta  Orbitals:
       Occupied  (A1) (B2) (A1) (A1) (A1) (B2) (A1) (A1) (A1) (B1)
                 (B2) (B1) (A1) (B2) (A2)
       Virtual   (A1) (B2) (B1) (A1) (B2) (A1) (B2) (B1) (A1) (A2)
                 (B1) (B2) (A1) (B2) (A1) (B1) (A1) (B2) (A1) (B1)
                 (A2) (A1) (A1) (A1) (B2) (B1) (B2) (A1) (B2) (A1)
                 (A2) (B2) (B1) (A1) (A2) (A2) (A1) (B1) (B2) (A1)
                 (B2) (B1) (A1) (A1) (B2) (B1) (A2) (B1) (B2) (A1)
                 (B2) (A1) (A1) (B2) (B1) (A2) (A1) (B2) (A1) (A1)
                 (B2) (A1) (A2) (B1) (A1) (A2) (B2) (B1) (B2) (A1)
                 (B1) (A2) (A1) (B2) (A1) (B2) (A1)
    12 initial guesses have been made.
 Convergence on wavefunction:    0.001000000000000
 Davidson Disk Diagonalization:  ConvIn= 1.00D-03 SkipCon=T Conv= 1.00D-03.
 Max sub-space:  2000 roots to seek:    12 dimension of matrix:         2371
 Iteration     1 Dimension    12 NMult     0 NNew     12
 CISAX will form    12 AO SS matrices at one time.
 NMat=    12 NSing=    12 JSym2X= 2.
 New state      1 was old state      4
 Excitation Energies [eV] at current iteration:
 Root      1 :     3.815876006072911
 Root      2 :     5.411942874401666
 Root      3 :     6.077165665042956
 Root      4 :     6.488415758735736
 Root      5 :     6.848325797969139
 Root      6 :     7.504439601368520
 Root      7 :     7.705183091509685
 Root      8 :     7.758650755135533
 Root      9 :     7.942432133688816
 Root     10 :     8.129095833352409
 Root     11 :     8.749039525897313
 Root     12 :    14.235271913185590
 Iteration     2 Dimension    24 NMult    12 NNew     12
 CISAX will form    12 AO SS matrices at one time.
 NMat=    12 NSing=    12 JSym2X= 2.
 Root      1 not converged, maximum delta is    0.384011018643316
 Excitation Energies [eV] at current iteration:
 Root      1 :     0.869150077737916   Change is   -2.946725928334995
 Root      2 :     3.637056972596068   Change is   -1.774885901805598
 Root      3 :     4.505614854262831   Change is   -1.571550810780125
 Root      4 :     5.675416519700511   Change is   -0.812999239035226
 Root      5 :     5.730669347678438   Change is   -1.117656450290700
 Root      6 :     6.989437097436218   Change is   -0.515002503932303
 Root      7 :     7.184868174746560   Change is   -0.573782580388973
 Root      8 :     7.471178898739227   Change is   -0.234004192770458
 Root      9 :     7.630010681920388   Change is   -0.312421451768427
 Root     10 :     7.810126736754059   Change is   -0.318969096598350
 Root     11 :     7.818403592224453   Change is   -0.930635933672861
 Root     12 :     9.965047969130037   Change is   -4.270223944055553
 Iteration     3 Dimension    27 NMult    24 NNew      3
 CISAX will form     3 AO SS matrices at one time.
 NMat=     3 NSing=     3 JSym2X= 2.
 Root      1 not converged, maximum delta is    0.023885420746586
 Excitation Energies [eV] at current iteration:
 Root      1 :     0.743197641149846   Change is   -0.125952436588071
 Root      2 :     3.247282980457290   Change is   -0.389773992138778
 Root      3 :     4.220905043309088   Change is   -0.284709810953743
 Iteration     4 Dimension    30 NMult    27 NNew      3
 CISAX will form     3 AO SS matrices at one time.
 NMat=     3 NSing=     3 JSym2X= 2.
 Root      1 not converged, maximum delta is    0.004327767626696
 Excitation Energies [eV] at current iteration:
 Root      1 :     0.737013960681055   Change is   -0.006183680468791
 Root      2 :     3.142022141666874   Change is   -0.105260838790417
 Root      3 :     4.182784921897347   Change is   -0.038120121411741
 Iteration     5 Dimension    33 NMult    30 NNew      3
 CISAX will form     3 AO SS matrices at one time.
 NMat=     3 NSing=     3 JSym2X= 2.
 Root      1 not converged, maximum delta is    0.001894642766540
 Excitation Energies [eV] at current iteration:
 Root      1 :     0.736351586876538   Change is   -0.000662373804517
 Root      2 :     3.119893942087883   Change is   -0.022128199578990
 Root      3 :     4.171762940777185   Change is   -0.011021981120162
 Iteration     6 Dimension    36 NMult    33 NNew      3
 CISAX will form     3 AO SS matrices at one time.
 NMat=     3 NSing=     3 JSym2X= 2.
 Root      1 has converged.
 Excitation Energies [eV] at current iteration:
 Root      1 :     0.736263086163842   Change is   -0.000088500712696
 Root      2 :     3.118143540721640   Change is   -0.001750401366243
 Root      3 :     4.170667765511584   Change is   -0.001095175265601
 Convergence achieved on expansion vectors.
 ***********************************************************************
 Stability analysis using <AA,BB:AA,BB> singles matrix:
 ***********************************************************************
 1PDM for each excited state written to RWF  633
 Ground to excited state transition densities written to RWF  633

 Eigenvectors of the stability matrix:
 
 Eigenvector   1:  2.036-A2   Eigenvalue= 0.0270572  <S**2>=0.786
     10B -> 17B       -0.19330
     10B -> 20B        0.40891
     10B -> 22B       -0.12962
     10B -> 29B        0.11464
     12B -> 17B       -0.35672
     12B -> 20B        0.69736
     12B -> 22B       -0.19910
     12B -> 27B        0.10212
     12B -> 29B        0.18459
     12B -> 33B        0.11299
 The wavefunction is stable under the perturbations considered.
 Leave Link  914 at Wed Feb 23 15:11:26 2022, MaxMem=  3758096384 cpu:              32.5 elap:               1.2
 (Enter /usr/site/hpc/x86_64/glibc-2.17/broadwell/gaussian/g16_a.03/pgi-16.5/g16/l508.exe)
 The wavefunction is already stable.
 Leave Link  508 at Wed Feb 23 15:11:26 2022, MaxMem=  3758096384 cpu:               0.6 elap:               0.0
 (Enter /usr/site/hpc/x86_64/glibc-2.17/broadwell/gaussian/g16_a.03/pgi-16.5/g16/l601.exe)
 Copying SCF densities to generalized density rwf, IOpCl= 1 IROHF=0.

 **********************************************************************

            Population analysis using the SCF density.

 **********************************************************************

 Orbital symmetries:
 Alpha Orbitals:
       Occupied  (A1) (B2) (A1) (A1) (A1) (A1) (B2) (A1) (B2) (A1)
                 (B1) (B2) (B1) (A1) (B2) (A2)
       Virtual   (A1) (B1) (B2) (A1) (A1) (B2) (B1) (A1) (A2) (B1)
                 (B2) (B2) (A1) (A1) (B1) (A1) (B2) (A1) (B1) (A2)
                 (A1) (A1) (B2) (A1) (B1) (B2) (A1) (B2) (A1) (A2)
                 (B2) (B1) (A1) (A2) (A2) (A1) (B2) (B1) (A1) (B2)
                 (B1) (A1) (A1) (B2) (B1) (A2) (B1) (B2) (A1) (B2)
                 (A1) (A1) (B2) (B1) (A2) (A1) (B2) (A1) (A1) (B2)
                 (A1) (A2) (A1) (B1) (B2) (A2) (B1) (B2) (A1) (B1)
                 (A1) (A2) (B2) (A1) (B2) (A1)
 Beta  Orbitals:
       Occupied  (A1) (B2) (A1) (A1) (A1) (B2) (A1) (A1) (A1) (B1)
                 (B2) (B1) (A1) (B2) (A2)
       Virtual   (A1) (B2) (B1) (A1) (B2) (A1) (B2) (B1) (A1) (A2)
                 (B1) (B2) (A1) (B2) (A1) (B1) (A1) (B2) (A1) (B1)
                 (A2) (A1) (A1) (A1) (B2) (B1) (B2) (A1) (B2) (A1)
                 (A2) (B2) (B1) (A1) (A2) (A2) (A1) (B1) (B2) (A1)
                 (B2) (B1) (A1) (A1) (B2) (B1) (A2) (B1) (B2) (A1)
                 (B2) (A1) (A1) (B2) (B1) (A2) (A1) (B2) (A1) (A1)
                 (B2) (A1) (A2) (B1) (A1) (A2) (B2) (B1) (B2) (A1)
                 (B1) (A2) (A1) (B2) (A1) (B2) (A1)
 The electronic state is 2-B2.
 Alpha  occ. eigenvalues --  -20.47174 -20.32126 -20.32122 -11.19996  -1.29508
 Alpha  occ. eigenvalues --   -1.13941  -1.09705  -0.58677  -0.52264  -0.46461
 Alpha  occ. eigenvalues --   -0.46031  -0.38354  -0.30812  -0.26986  -0.22631
 Alpha  occ. eigenvalues --   -0.21717
 Alpha virt. eigenvalues --    0.22107   0.23405   0.23499   0.23786   0.35825
 Alpha virt. eigenvalues --    0.37018   0.38355   0.39516   0.40071   0.43652
 Alpha virt. eigenvalues --    0.44181   0.45939   0.46263   0.49650   0.50678
 Alpha virt. eigenvalues --    0.55372   0.56726   0.67037   0.78611   0.81038
 Alpha virt. eigenvalues --    0.84106   0.89301   0.91995   0.94860   0.98116
 Alpha virt. eigenvalues --    0.98919   1.05524   1.09004   1.10283   1.27456
 Alpha virt. eigenvalues --    1.28492   1.30526   1.30999   1.36984   1.39757
 Alpha virt. eigenvalues --    1.40674   1.43152   1.44259   1.51610   1.53468
 Alpha virt. eigenvalues --    1.54358   1.60493   1.66284   1.67355   1.76956
 Alpha virt. eigenvalues --    1.92179   1.94376   1.96989   2.08252   2.11417
 Alpha virt. eigenvalues --    2.16198   2.25191   2.29071   2.30281   2.40097
 Alpha virt. eigenvalues --    2.58192   2.68888   2.81486   3.18383   3.25768
 Alpha virt. eigenvalues --    3.37991   3.74462   3.78470   3.85463   3.85521
 Alpha virt. eigenvalues --    3.89846   3.92100   3.93321   3.96017   3.98008
 Alpha virt. eigenvalues --    4.02470   4.02759   4.10554   4.17534   4.33925
 Alpha virt. eigenvalues --    4.38657
  Beta  occ. eigenvalues --  -20.43025 -20.31793 -20.31790 -11.20208  -1.22622
  Beta  occ. eigenvalues --   -1.08637  -1.05865  -0.54859  -0.45322  -0.43638
  Beta  occ. eigenvalues --   -0.41429  -0.28129  -0.23561  -0.22114  -0.21449
  Beta virt. eigenvalues --    0.22212   0.22704   0.23412   0.23798   0.27753
  Beta virt. eigenvalues --    0.35876   0.38445   0.38550   0.39500   0.40081
  Beta virt. eigenvalues --    0.43447   0.45407   0.46358   0.46842   0.50130
  Beta virt. eigenvalues --    0.50998   0.55782   0.58030   0.67871   0.78670
  Beta virt. eigenvalues --    0.81440   0.85817   0.89459   0.95461   0.95679
  Beta virt. eigenvalues --    0.97932   1.01025   1.05849   1.09052   1.10996
  Beta virt. eigenvalues --    1.28986   1.29874   1.30901   1.33812   1.38131
  Beta virt. eigenvalues --    1.40304   1.40779   1.44314   1.48329   1.52776
  Beta virt. eigenvalues --    1.53771   1.54582   1.61459   1.66755   1.68173
  Beta virt. eigenvalues --    1.78650   1.92282   1.94461   2.05401   2.08974
  Beta virt. eigenvalues --    2.14282   2.17100   2.25786   2.29677   2.30297
  Beta virt. eigenvalues --    2.40062   2.58907   2.69695   2.81759   3.21260
  Beta virt. eigenvalues --    3.26323   3.38700   3.84085   3.87123   3.88254
  Beta virt. eigenvalues --    3.90408   3.91521   3.92721   3.93991   3.96681
  Beta virt. eigenvalues --    3.98354   4.03093   4.04324   4.12883   4.19611
  Beta virt. eigenvalues --    4.35268   4.39178
          Condensed to atoms (all electrons):
               1          2          3          4
     1  O    8.504760   0.081176  -0.052528  -0.052528
     2  C    0.081176   4.016301   0.373501   0.373501
     3  O   -0.052528   0.373501   8.568683  -0.052336
     4  O   -0.052528   0.373501  -0.052336   8.568683
          Atomic-Atomic Spin Densities.
               1          2          3          4
     1  O    1.154545  -0.074558  -0.020779  -0.020779
     2  C   -0.074558  -0.058745  -0.001422  -0.001422
     3  O   -0.020779  -0.001422   0.076367  -0.005307
     4  O   -0.020779  -0.001422  -0.005307   0.076367
 Mulliken charges and spin densities:
               1          2
     1  O   -0.480879   1.038429
     2  C    1.155520  -0.136146
     3  O   -0.837321   0.048859
     4  O   -0.837321   0.048859
 Sum of Mulliken charges =  -1.00000   1.00000
 Mulliken charges and spin densities with hydrogens summed into heavy atoms:
               1          2
     1  O   -0.480879   1.038429
     2  C    1.155520  -0.136146
     3  O   -0.837321   0.048859
     4  O   -0.837321   0.048859
 Electronic spatial extent (au):  <R**2>=            204.5139
 Charge=             -1.0000 electrons
 Dipole moment (field-independent basis, Debye):
    X=              0.0000    Y=             -0.0000    Z=              2.2011  Tot=              2.2011
 Quadrupole moment (field-independent basis, Debye-Ang):
   XX=            -23.1713   YY=            -32.9354   ZZ=            -28.9357
   XY=             -0.0000   XZ=             -0.0000   YZ=              0.0000
 Traceless Quadrupole moment (field-independent basis, Debye-Ang):
   XX=              5.1762   YY=             -4.5879   ZZ=             -0.5883
   XY=             -0.0000   XZ=             -0.0000   YZ=              0.0000
 Octapole moment (field-independent basis, Debye-Ang**2):
  XXX=              0.0000  YYY=              0.0000  ZZZ=              1.2465  XYY=              0.0000
  XXY=              0.0000  XXZ=              0.7395  XZZ=              0.0000  YZZ=              0.0000
  YYZ=              6.8855  XYZ=              0.0000
 Hexadecapole moment (field-independent basis, Debye-Ang**3):
 XXXX=            -22.0010 YYYY=           -138.6045 ZZZZ=           -114.7491 XXXY=             -0.0000
 XXXZ=             -0.0000 YYYX=             -0.0000 YYYZ=              0.0000 ZZZX=             -0.0000
 ZZZY=             -0.0000 XXYY=            -25.6048 XXZZ=            -22.5115 YYZZ=            -40.6720
 XXYZ=              0.0000 YYXZ=             -0.0000 ZZXY=             -0.0000
 N-N= 1.050393030199D+02 E-N=-8.395614800225D+02  KE= 2.621756927086D+02
 Symmetry A1   KE= 1.738682344510D+02
 Symmetry A2   KE= 4.353758328143D+00
 Symmetry B1   KE= 8.064650666553D+00
 Symmetry B2   KE= 7.588904926292D+01
 Symmetry A1   SP=-1.422366890624D-14
 Symmetry A2   SP= 5.480423591768D-15
 Symmetry B1   SP= 1.970726080494D-14
 Symmetry B2   SP= 1.000000000000D+00
                          Isotropic Fermi Contact Couplings
        Atom                 a.u.       MegaHertz       Gauss      10(-4) cm-1
     1  O(17)              0.28375    -172.01087     -61.37776     -57.37665
     2  C(13)             -0.03882     -43.63677     -15.57068     -14.55566
     3  O(17)              0.02813     -17.05468      -6.08554      -5.68883
     4  O(17)              0.02813     -17.05468      -6.08554      -5.68883
 --------------------------------------------------------
       Center         ----  Spin Dipole Couplings  ----
                      3XX-RR        3YY-RR        3ZZ-RR
 --------------------------------------------------------
     1   Atom       -1.757414      3.622296     -1.864881
     2   Atom       -0.042648     -0.008990      0.051638
     3   Atom       -0.158863     -0.142196      0.301059
     4   Atom       -0.158863     -0.142196      0.301059
 --------------------------------------------------------
                        XY            XZ            YZ
 --------------------------------------------------------
     1   Atom        0.000000     -0.000000      0.000000
     2   Atom        0.000000      0.000000      0.000000
     3   Atom        0.000000     -0.000000      0.008363
     4   Atom        0.000000     -0.000000     -0.008363
 --------------------------------------------------------


 ---------------------------------------------------------------------------------
              Anisotropic Spin Dipole Couplings in Principal Axis System
 ---------------------------------------------------------------------------------

       Atom             a.u.   MegaHertz   Gauss  10(-4) cm-1        Axes

              Baa    -1.8649   134.942    48.150    45.012  0.0000  0.0000  1.0000
     1 O(17)  Bbb    -1.7574   127.165    45.376    42.418  1.0000 -0.0000  0.0000
              Bcc     3.6223  -262.107   -93.526   -87.429  0.0000  1.0000 -0.0000
 
              Baa    -0.0426    -5.723    -2.042    -1.909  1.0000  0.0000 -0.0000
     2 C(13)  Bbb    -0.0090    -1.206    -0.430    -0.402  0.0000  1.0000 -0.0000
              Bcc     0.0516     6.929     2.473     2.311  0.0000  0.0000  1.0000
 
              Baa    -0.1589    11.495     4.102     3.834  1.0000  0.0000  0.0000
     3 O(17)  Bbb    -0.1424    10.301     3.676     3.436 -0.0000  0.9998 -0.0189
              Bcc     0.3012   -21.796    -7.777    -7.270 -0.0000  0.0189  0.9998
 
              Baa    -0.1589    11.495     4.102     3.834  1.0000 -0.0000  0.0000
     4 O(17)  Bbb    -0.1424    10.301     3.676     3.436  0.0000  0.9998  0.0189
              Bcc     0.3012   -21.796    -7.777    -7.270 -0.0000 -0.0189  0.9998
 

 ---------------------------------------------------------------------------------

 No NMR shielding tensors so no spin-rotation constants.
 Leave Link  601 at Wed Feb 23 15:11:27 2022, MaxMem=  3758096384 cpu:              14.5 elap:               0.6
 (Enter /usr/site/hpc/x86_64/glibc-2.17/broadwell/gaussian/g16_a.03/pgi-16.5/g16/l9999.exe)
 1\1\GINC-N049\Stability\UHF\Aug-CC-pVDZ\C1O3(1-,2)\ROOT\23-Feb-2022\0\
 \#p HF/aug-cc-pVDZ scf=xqc stable=opt\\co3w2- groundstate energy\\-1,2
 \O\C,1,1.338592\O,2,1.2597,1,115.005\O,2,1.2597,1,115.005,3,180.,0\\Ve
 rsion=ES64L-G16RevA.03\State=2-B2\HF=-262.5183286\S2=0.760569\S2-1=0.\
 S2A=0.750092\RMSD=3.632e-09\Dipole=0.,0.,-0.8659875\Quadrupole=-3.4110
 108,3.8483828,-0.4373721,0.,0.,0.\PG=C02V [C2(C1O1),SGV(O2)]\\@


 THE HURRIEDER I GO, THE BEHINDER I GET.
 Job cpu time:       0 days  0 hours  1 minutes 40.9 seconds.
 Elapsed time:       0 days  0 hours  0 minutes  4.0 seconds.
 File lengths (MBytes):  RWF=    360 Int=      0 D2E=      0 Chk=      8 Scr=      8
 Normal termination of Gaussian 16 at Wed Feb 23 15:11:27 2022.
 Initial command:
 /usr/site/hpc/x86_64/glibc-2.17/broadwell/gaussian/g16_a.03/pgi-16.5/g16/l1.exe "/gpfs/gpfs1/scratch/c7441219/CO3/StrukturenVersion2/Gau-490217.inp" -scrdir="/gpfs/gpfs1/scratch/c7441219/CO3/StrukturenVersion2/"
 Entering Link 1 = /usr/site/hpc/x86_64/glibc-2.17/broadwell/gaussian/g16_a.03/pgi-16.5/g16/l1.exe PID=    490641.
  
 Copyright (c) 1988,1990,1992,1993,1995,1998,2003,2009,2016,
            Gaussian, Inc.  All Rights Reserved.
  
 This is part of the Gaussian(R) 16 program.  It is based on
 the Gaussian(R) 09 system (copyright 2009, Gaussian, Inc.),
 the Gaussian(R) 03 system (copyright 2003, Gaussian, Inc.),
 the Gaussian(R) 98 system (copyright 1998, Gaussian, Inc.),
 the Gaussian(R) 94 system (copyright 1995, Gaussian, Inc.),
 the Gaussian 92(TM) system (copyright 1992, Gaussian, Inc.),
 the Gaussian 90(TM) system (copyright 1990, Gaussian, Inc.),
 the Gaussian 88(TM) system (copyright 1988, Gaussian, Inc.),
 the Gaussian 86(TM) system (copyright 1986, Carnegie Mellon
 University), and the Gaussian 82(TM) system (copyright 1983,
 Carnegie Mellon University). Gaussian is a federally registered
 trademark of Gaussian, Inc.
  
 This software contains proprietary and confidential information,
 including trade secrets, belonging to Gaussian, Inc.
  
 This software is provided under written license and may be
 used, copied, transmitted, or stored only in accord with that
 written license.
  
 The following legend is applicable only to US Government
 contracts under FAR:
  
                    RESTRICTED RIGHTS LEGEND
  
 Use, reproduction and disclosure by the US Government is
 subject to restrictions as set forth in subparagraphs (a)
 and (c) of the Commercial Computer Software - Restricted
 Rights clause in FAR 52.227-19.
  
 Gaussian, Inc.
 340 Quinnipiac St., Bldg. 40, Wallingford CT 06492
  
  
 ---------------------------------------------------------------
 Warning -- This program may not be used in any manner that
 competes with the business of Gaussian, Inc. or will provide
 assistance to any competitor of Gaussian, Inc.  The licensee
 of this program is prohibited from giving any competitor of
 Gaussian, Inc. access to this program.  By using this program,
 the user acknowledges that Gaussian, Inc. is engaged in the
 business of creating and licensing software in the field of
 computational chemistry and represents and warrants to the
 licensee that it is not a competitor of Gaussian, Inc. and that
 it will not use this program in any manner prohibited above.
 ---------------------------------------------------------------
  

 Cite this work as:
 Gaussian 16, Revision A.03,
 M. J. Frisch, G. W. Trucks, H. B. Schlegel, G. E. Scuseria, 
 M. A. Robb, J. R. Cheeseman, G. Scalmani, V. Barone, 
 G. A. Petersson, H. Nakatsuji, X. Li, M. Caricato, A. V. Marenich, 
 J. Bloino, B. G. Janesko, R. Gomperts, B. Mennucci, H. P. Hratchian, 
 J. V. Ortiz, A. F. Izmaylov, J. L. Sonnenberg, D. Williams-Young, 
 F. Ding, F. Lipparini, F. Egidi, J. Goings, B. Peng, A. Petrone, 
 T. Henderson, D. Ranasinghe, V. G. Zakrzewski, J. Gao, N. Rega, 
 G. Zheng, W. Liang, M. Hada, M. Ehara, K. Toyota, R. Fukuda, 
 J. Hasegawa, M. Ishida, T. Nakajima, Y. Honda, O. Kitao, H. Nakai, 
 T. Vreven, K. Throssell, J. A. Montgomery, Jr., J. E. Peralta, 
 F. Ogliaro, M. J. Bearpark, J. J. Heyd, E. N. Brothers, K. N. Kudin, 
 V. N. Staroverov, T. A. Keith, R. Kobayashi, J. Normand, 
 K. Raghavachari, A. P. Rendell, J. C. Burant, S. S. Iyengar, 
 J. Tomasi, M. Cossi, J. M. Millam, M. Klene, C. Adamo, R. Cammi, 
 J. W. Ochterski, R. L. Martin, K. Morokuma, O. Farkas, 
 J. B. Foresman, and D. J. Fox, Gaussian, Inc., Wallingford CT, 2016.
 
 ******************************************
 Gaussian 16:  ES64L-G16RevA.03 25-Dec-2016
                23-Feb-2022 
 ******************************************
 %nproc=28
 Will use up to   28 processors via shared memory.
 %mem=28GB
 %chk=co3.0.cc_acp.stable.chk
 -----------------------------------------------------------
 #p CCSD/aug-cc-pVDZ scf=xqc guess=check geom=check opt freq
 -----------------------------------------------------------
 1/18=20,19=15,29=2,38=1/1,3;
 2/9=110,12=2,40=1/2;
 3/5=16,7=10,11=9,14=-4,25=1,30=1,71=1,116=-2/1,2,3;
 4/5=1/1;
 5/5=2,8=3,13=1,38=6/2,8;
 8/6=4,9=120000,10=1/1,4;
 9/5=7,15=1/13;
 11/28=-8,29=200,42=3/11;
 10/5=6/2;
 6/7=2,8=2,9=2,10=2/1;
 7/12=7/1,2,3,16;
 1/18=20,19=15/3(2);
 2/9=110/2;
 99//99;
 2/9=110/2;
 3/5=16,7=10,11=9,14=-2,25=1,30=1,71=1/1,2,3;
 4/5=5,16=3,69=1/1;
 5/5=2,8=3,13=1,38=5/2,8;
 8/6=4,9=120000,10=1/1,4;
 9/5=7,15=1/13;
 11/28=-8,29=200,42=3/11;
 10/5=6/2;
 7/12=7/1,2,3,16;
 1/18=20,19=15/3(-9);
 2/9=110/2;
 6/7=2,8=2,9=2,10=2/1;
 99//99;
 Leave Link    1 at Wed Feb 23 15:11:27 2022, MaxMem=  3758096384 cpu:               3.3 elap:               0.1
 (Enter /usr/site/hpc/x86_64/glibc-2.17/broadwell/gaussian/g16_a.03/pgi-16.5/g16/l101.exe)
 -------------------------
 co3w2- groundstate energy
 -------------------------
 Structure from the checkpoint file:  "co3.0.cc_acp.stable.chk"
 Charge = -1 Multiplicity = 2
 Z-Matrix found in chk file.
 O
 C,1,co2
 O,2,oc3,1,oco3
 O,2,oc4,1,oco4,3,dih4,0
      Variables:
 co2=1.338592
 oc3=1.2597
 oco3=115.005
 oc4=1.2597
 oco4=115.005
 dih4=180.
 Recover connectivity data from disk.
 ITRead=  0  0  0  0
 MicOpt= -1 -1 -1 -1
 NAtoms=      4 NQM=        4 NQMF=       0 NMMI=      0 NMMIF=      0
                NMic=       0 NMicF=      0.
                    Isotopes and Nuclear Properties:
 (Nuclear quadrupole moments (NQMom) in fm**2, nuclear magnetic moments (NMagM)
  in nuclear magnetons)

  Atom         1           2           3           4
 IAtWgt=          16          12          16          16
 AtmWgt=  15.9949146  12.0000000  15.9949146  15.9949146
 NucSpn=           0           0           0           0
 AtZEff=   5.6000000   3.6000000   5.6000000   5.6000000
 NQMom=    0.0000000   0.0000000   0.0000000   0.0000000
 NMagM=    0.0000000   0.0000000   0.0000000   0.0000000
 AtZNuc=   8.0000000   6.0000000   8.0000000   8.0000000
 Leave Link  101 at Wed Feb 23 15:11:28 2022, MaxMem=  3758096384 cpu:              10.4 elap:               0.4
 (Enter /usr/site/hpc/x86_64/glibc-2.17/broadwell/gaussian/g16_a.03/pgi-16.5/g16/l103.exe)

 GradGradGradGradGradGradGradGradGradGradGradGradGradGradGradGradGradGrad
 Berny optimization.
 Initialization pass.
                           ----------------------------
                           !    Initial Parameters    !
                           ! (Angstroms and Degrees)  !
 --------------------------                            --------------------------
 ! Name  Definition              Value          Derivative Info.                !
 --------------------------------------------------------------------------------
 ! R1    R(1,2)                  1.3386         estimate D2E/DX2                !
 ! R2    R(2,3)                  1.2597         estimate D2E/DX2                !
 ! R3    R(2,4)                  1.2597         estimate D2E/DX2                !
 ! A1    A(1,2,3)              115.005          estimate D2E/DX2                !
 ! A2    A(1,2,4)              115.005          estimate D2E/DX2                !
 ! A3    A(3,2,4)              129.99           estimate D2E/DX2                !
 ! D1    D(1,2,4,3)            180.0            estimate D2E/DX2                !
 --------------------------------------------------------------------------------
 Trust Radius=3.00D-01 FncErr=1.00D-07 GrdErr=1.00D-07 EigMax=2.50D+02 EigMin=1.00D-04
 Number of steps in this run=     20 maximum allowed number of steps=    100.
 GradGradGradGradGradGradGradGradGradGradGradGradGradGradGradGradGradGrad

 Leave Link  103 at Wed Feb 23 15:11:28 2022, MaxMem=  3758096384 cpu:               0.7 elap:               0.0
 (Enter /usr/site/hpc/x86_64/glibc-2.17/broadwell/gaussian/g16_a.03/pgi-16.5/g16/l202.exe)
                          Input orientation:                          
 ---------------------------------------------------------------------
 Center     Atomic      Atomic             Coordinates (Angstroms)
 Number     Number       Type             X           Y           Z
 ---------------------------------------------------------------------
      1          8           0        0.000000    0.000000    0.000000
      2          6           0        0.000000   -0.000000    1.338592
      3          8           0        1.141629    0.000000    1.871064
      4          8           0       -1.141629   -0.000000    1.871064
 ---------------------------------------------------------------------
                    Distance matrix (angstroms):
                    1          2          3          4
     1  O    0.000000
     2  C    1.338592   0.000000
     3  O    2.191848   1.259700   0.000000
     4  O    2.191848   1.259700   2.283259   0.000000
 Stoichiometry    CO3(1-,2)
 Framework group  C2V[C2(CO),SGV(O2)]
 Deg. of freedom     3
 Full point group                 C2V     NOp   4
 RotChk:  IX=0 Diff= 7.73D-16
 Largest Abelian subgroup         C2V     NOp   4
 Largest concise Abelian subgroup C2      NOp   2
                         Standard orientation:                         
 ---------------------------------------------------------------------
 Center     Atomic      Atomic             Coordinates (Angstroms)
 Number     Number       Type             X           Y           Z
 ---------------------------------------------------------------------
      1          8           0        0.000000   -0.000000    1.265619
      2          6           0       -0.000000    0.000000   -0.072973
      3          8           0        0.000000    1.141629   -0.605445
      4          8           0       -0.000000   -1.141629   -0.605445
 ---------------------------------------------------------------------
 Rotational constants (GHZ):          13.5089353          12.1214603           6.3888215
 Leave Link  202 at Wed Feb 23 15:11:28 2022, MaxMem=  3758096384 cpu:               2.3 elap:               0.1
 (Enter /usr/site/hpc/x86_64/glibc-2.17/broadwell/gaussian/g16_a.03/pgi-16.5/g16/l301.exe)
 Standard basis: Aug-CC-pVDZ (5D, 7F)
 Ernie: Thresh=  0.10000D-02 Tol=  0.10000D-05 Strict=F.
 Ernie:  8 primitive shells out of 100 were deleted.
 There are    44 symmetry adapted cartesian basis functions of A1  symmetry.
 There are    11 symmetry adapted cartesian basis functions of A2  symmetry.
 There are    17 symmetry adapted cartesian basis functions of B1  symmetry.
 There are    28 symmetry adapted cartesian basis functions of B2  symmetry.
 There are    38 symmetry adapted basis functions of A1  symmetry.
 There are    11 symmetry adapted basis functions of A2  symmetry.
 There are    17 symmetry adapted basis functions of B1  symmetry.
 There are    26 symmetry adapted basis functions of B2  symmetry.
    92 basis functions,   172 primitive gaussians,   100 cartesian basis functions
    16 alpha electrons       15 beta electrons
       nuclear repulsion energy       105.0393030199 Hartrees.
 IExCor=    0 DFT=F Ex=HF Corr=None ExCW=0 ScaHFX=  1.000000
 ScaDFX=  1.000000  1.000000  1.000000  1.000000 ScalE2=  1.000000  1.000000
 IRadAn=      5 IRanWt=     -1 IRanGd=            0 ICorTp=0 IEmpDi=  4
 NAtoms=    4 NActive=    4 NUniq=    3 SFac= 1.78D+00 NAtFMM=   60 NAOKFM=F Big=F
 Integral buffers will be    131072 words long.
 Raffenetti 2 integral format.
 Two-electron integral symmetry is turned on.
 Leave Link  301 at Wed Feb 23 15:11:28 2022, MaxMem=  3758096384 cpu:               1.9 elap:               0.1
 (Enter /usr/site/hpc/x86_64/glibc-2.17/broadwell/gaussian/g16_a.03/pgi-16.5/g16/l302.exe)
 NPDir=0 NMtPBC=     1 NCelOv=     1 NCel=       1 NClECP=     1 NCelD=      1
         NCelK=      1 NCelE2=     1 NClLst=     1 CellRange=     0.0.
 One-electron integrals computed using PRISM.
 One-electron integral symmetry used in STVInt
 NBasis=    92 RedAO= T EigKep=  1.29D-03  NBF=    38    11    17    26
 NBsUse=    92 1.00D-06 EigRej= -1.00D+00 NBFU=    38    11    17    26
 Leave Link  302 at Wed Feb 23 15:11:28 2022, MaxMem=  3758096384 cpu:               2.7 elap:               0.1
 (Enter /usr/site/hpc/x86_64/glibc-2.17/broadwell/gaussian/g16_a.03/pgi-16.5/g16/l303.exe)
 DipDrv:  MaxL=1.
 Leave Link  303 at Wed Feb 23 15:11:28 2022, MaxMem=  3758096384 cpu:               2.9 elap:               0.1
 (Enter /usr/site/hpc/x86_64/glibc-2.17/broadwell/gaussian/g16_a.03/pgi-16.5/g16/l401.exe)
 Initial guess from the checkpoint file:  "co3.0.cc_acp.stable.chk"
 B after Tr=     0.000000    0.000000   -0.000000
         Rot=    1.000000    0.000000    0.000000   -0.000000 Ang=   0.00 deg.
 Guess basis will be translated and rotated to current coordinates.
 JPrj=2 DoOrth=T DoCkMO=T.
 Initial guess orbital symmetries:
 Alpha Orbitals:
       Occupied  (A1) (B2) (A1) (A1) (A1) (A1) (B2) (A1) (B2) (A1)
                 (B1) (B2) (B1) (A1) (B2) (A2)
       Virtual   (A1) (B1) (B2) (A1) (A1) (B2) (B1) (A1) (A2) (B1)
                 (B2) (B2) (A1) (A1) (B1) (A1) (B2) (A1) (B1) (A2)
                 (A1) (A1) (B2) (A1) (B1) (B2) (A1) (B2) (A1) (A2)
                 (B2) (B1) (A1) (A2) (A2) (A1) (B2) (B1) (A1) (B2)
                 (B1) (A1) (A1) (B2) (B1) (A2) (B1) (B2) (A1) (B2)
                 (A1) (A1) (B2) (B1) (A2) (A1) (B2) (A1) (A1) (B2)
                 (A1) (A2) (A1) (B1) (B2) (A2) (B1) (B2) (A1) (B1)
                 (A1) (A2) (B2) (A1) (B2) (A1)
 Beta  Orbitals:
       Occupied  (A1) (B2) (A1) (A1) (A1) (B2) (A1) (A1) (A1) (B1)
                 (B2) (B1) (A1) (B2) (A2)
       Virtual   (A1) (B2) (B1) (A1) (B2) (A1) (B2) (B1) (A1) (A2)
                 (B1) (B2) (A1) (B2) (A1) (B1) (A1) (B2) (A1) (B1)
                 (A2) (A1) (A1) (A1) (B2) (B1) (B2) (A1) (B2) (A1)
                 (A2) (B2) (B1) (A1) (A2) (A2) (A1) (B1) (B2) (A1)
                 (B2) (B1) (A1) (A1) (B2) (B1) (A2) (B1) (B2) (A1)
                 (B2) (A1) (A1) (B2) (B1) (A2) (A1) (B2) (A1) (A1)
                 (B2) (A1) (A2) (B1) (A1) (A2) (B2) (B1) (B2) (A1)
                 (B1) (A2) (A1) (B2) (A1) (B2) (A1)
 The electronic state of the initial guess is 2-B2.
 Initial guess <Sx>= 0.0000 <Sy>= 0.0000 <Sz>= 0.5000 <S**2>= 0.7606 S= 0.5053
 Leave Link  401 at Wed Feb 23 15:11:28 2022, MaxMem=  3758096384 cpu:               5.5 elap:               0.2
 (Enter /usr/site/hpc/x86_64/glibc-2.17/broadwell/gaussian/g16_a.03/pgi-16.5/g16/l502.exe)
 Keep R1 and R2 ints in memory in symmetry-blocked form, NReq=15067539.
 FoFCou: FMM=F IPFlag=           0 FMFlag=           0 FMFlg1=           0
         NFxFlg=           0 DoJE=F BraDBF=F KetDBF=F FulRan=T
         wScrn=  0.000000 ICntrl=       600 IOpCl=  0 I1Cent=           0 NGrid=           0
         NMat0=    1 NMatS0=   4278 NMatT0=    0 NMatD0=    1 NMtDS0=    0 NMtDT0=    0
 Petite list used in FoFCou.
 UHF open shell SCF:
 Using DIIS extrapolation, IDIIS=  1040.
 NGot=  3758096384 LenX=  3753348984 LenY=  3753338543
 Requested convergence on RMS density matrix=1.00D-08 within  32 cycles.
 Requested convergence on MAX density matrix=1.00D-06.
 Requested convergence on             energy=1.00D-06.
 No special actions if energy rises.

 Cycle   1  Pass 1  IDiag  1:
 E= -262.518328627203    
 DIIS: error= 1.04D-08 at cycle   1 NSaved=   1.
 NSaved= 1 IEnMin= 1 EnMin= -262.518328627203     IErMin= 1 ErrMin= 1.04D-08
 ErrMax= 1.04D-08  0.00D+00 EMaxC= 1.00D-01 BMatC= 3.34D-14 BMatP= 3.34D-14
 IDIUse=1 WtCom= 1.00D+00 WtEn= 0.00D+00
 Coeff-Com:  0.100D+01
 Coeff:      0.100D+01
 Gap=     0.438 Goal=   None    Shift=    0.000
 Gap=     0.437 Goal=   None    Shift=    0.000
 RMSDP=1.31D-09 MaxDP=3.20D-08              OVMax= 6.56D-08

 SCF Done:  E(UHF) =  -262.518328627     A.U. after    1 cycles
            NFock=  1  Conv=0.13D-08     -V/T= 2.0013
 <Sx>= 0.0000 <Sy>= 0.0000 <Sz>= 0.5000 <S**2>= 0.7606 S= 0.5053
 <L.S>= 0.000000000000E+00
 KE= 2.621756925302D+02 PE=-8.395614798441D+02 EE= 2.098281556667D+02
 Annihilation of the first spin contaminant:
 S**2 before annihilation     0.7606,   after     0.7501
 Leave Link  502 at Wed Feb 23 15:11:29 2022, MaxMem=  3758096384 cpu:              11.4 elap:               0.5
 (Enter /usr/site/hpc/x86_64/glibc-2.17/broadwell/gaussian/g16_a.03/pgi-16.5/g16/l508.exe)
 QCSCF skips out because SCF is already converged.
 Leave Link  508 at Wed Feb 23 15:11:29 2022, MaxMem=  3758096384 cpu:               0.9 elap:               0.1
 (Enter /usr/site/hpc/x86_64/glibc-2.17/broadwell/gaussian/g16_a.03/pgi-16.5/g16/l801.exe)
 Windowed orbitals will be sorted by symmetry type.
 ExpMin= 4.04D-02 ExpMax= 1.17D+04 ExpMxC= 4.01D+02 IAcc=3 IRadAn=         5 AccDes= 0.00D+00
 HarFok:  IExCor=  205 AccDes= 0.00D+00 IRadAn=         5 IDoV=-2 UseB2=F ITyADJ=14
 ICtDFT= 12500011 ScaDFX=  1.000000  1.000000  1.000000  1.000000
 Largest valence mixing into a core orbital is  1.25D-04
 Largest core mixing into a valence orbital is  3.69D-05
 Largest valence mixing into a core orbital is  1.23D-04
 Largest core mixing into a valence orbital is  4.65D-05
 Range of M.O.s used for correlation:     5    92
 NBasis=    92 NAE=    16 NBE=    15 NFC=     4 NFV=     0
 NROrb=     88 NOA=    12 NOB=    11 NVA=    76 NVB=    77
 Leave Link  801 at Wed Feb 23 15:11:29 2022, MaxMem=  3758096384 cpu:               1.2 elap:               0.1
 (Enter /usr/site/hpc/x86_64/glibc-2.17/broadwell/gaussian/g16_a.03/pgi-16.5/g16/l804.exe)
 Open-shell transformation, MDV=  3758096384 ITran=4 ISComp=2.
 Unit  1 TFree=        865911 TCopy=        369481.
 Semi-Direct transformation.
 ModeAB=           4 MOrb=            12 LenV=    3757718542
 LASXX=       940136 LTotXX=      940136 LenRXX=     1935992
 LTotAB=      995856 MaxLAS=     3515424 LenRXY=           0
 NonZer=     2876128 LenScr=     4718592 LnRSAI=     3515424
 LnScr1=     5767168 LExtra=           0 Total=     15937176
 MaxDsk=          -1 SrtSym=           T ITran=            4
 DoSDTr:  NPSUse= 28
 JobTyp=1 Pass  1:  I=   1 to  12.
 (rs|ai) integrals will be sorted in core.
 Complete sort for first half transformation.
 First half transformation complete.
 Begin second half transformation for I=  10.
 Complete sort for second half transformation.
 Second half transformation complete.
 ModeAB=           4 MOrb=            11 LenV=    3757718542
 LASXX=       868415 LTotXX=      868415 LenRXX=     1552426
 LTotAB=      684011 MaxLAS=     3222472 LenRXY=           0
 NonZer=     2420841 LenScr=     3670016 LnRSAI=     3222472
 LnScr1=     5242880 LExtra=           0 Total=     13687794
 MaxDsk=          -1 SrtSym=           T ITran=            4
 DoSDTr:  NPSUse= 28
 JobTyp=2 Pass  1:  I=   1 to  11.
 (rs|ai) integrals will be sorted in core.
 Complete sort for first half transformation.
 First half transformation complete.
 Begin second half transformation for I=  10.
 Complete sort for second half transformation.
 Second half transformation complete.
 Spin components of T(2) and E(2):
     alpha-alpha T2 =       0.2844990705D-01 E2=     -0.9947758504D-01
     alpha-beta  T2 =       0.1403624655D+00 E2=     -0.4900450697D+00
     beta-beta   T2 =       0.2899877740D-01 E2=     -0.9149253132D-01
 ANorm=    0.1094445590D+01
 E2 =    -0.6810151861D+00 EUMP2 =    -0.26319934381330D+03
 (S**2,0)=  0.76057D+00           (S**2,1)=  0.75266D+00
 E(PUHF)=      -0.26252206983D+03        E(PMP2)=      -0.26320169283D+03
 Leave Link  804 at Wed Feb 23 15:11:30 2022, MaxMem=  3758096384 cpu:              28.0 elap:               1.0
 (Enter /usr/site/hpc/x86_64/glibc-2.17/broadwell/gaussian/g16_a.03/pgi-16.5/g16/l913.exe)
 CIDS:  MDV=  3758096384.
 Frozen-core window:  NFC=   4 NFV=   0.
 IFCWin=0 IBDFC=1 NFBD=     0     0 NFCmp=     0     0 NFFFC=     0     0
 Using original routines for 1st iteration.
 Using DD4UQ or CC4UQ for 2nd and later iterations.
 Keep R2 and R3 ints in memory in symmetry-blocked form, NReq=15075474.
 FoFCou: FMM=F IPFlag=           0 FMFlag=           0 FMFlg1=           0
         NFxFlg=           0 DoJE=F BraDBF=F KetDBF=F FulRan=T
         wScrn=  0.000000 ICntrl=       600 IOpCl=  0 I1Cent=           0 NGrid=           0
         NMat0=    1 NMatS0=   4278 NMatT0=    0 NMatD0=    1 NMtDS0=    0 NMtDT0=    0
 Petite list used in FoFCou.
 CIDS: In Core Option IDoMem=           1.
 Coupled Cluster theory with single and double substitutions
 ===========================================================
 Iterations=  50 Convergence= 0.100D-07
 Produce multiple copies of IABC intergrals
 Iteration Nr.   1
 **********************
 DD1Dir will call FoFMem   1 times, MxPair=       386
 NAB=   132 NAA=    66 NBB=    55.
 E(PMP3)=      -0.26319775377D+03
 MP4(R+Q)=  0.12141141D-01
 Maximum subspace dimension=  5
 A-vector RMS=  6.4771119D-03 Max=  6.3446675D-02 conv= 1.00D-06.
 RLE energy=       -0.6652079158
 E3=        0.32909905D-02        EUMP3=      -0.26319605282D+03
 E4(DQ)=   -0.24611990D-02        UMP4(DQ)=   -0.26319851402D+03
 E4(SDQ)=  -0.17112889D-01        UMP4(SDQ)=  -0.26321316571D+03
 VARIATIONAL ENERGIES WITH THE FIRST-ORDER WAVEFUNCTION:
 DE(Corr)= -0.66483310     E(Corr)=     -263.18316172    
 NORM(A)=   0.10951004D+01
 Iteration Nr.   2
 **********************
 DD1Dir will call FoFMem   1 times, MxPair=       386
 NAB=   132 NAA=    66 NBB=    55.
 A-vector RMS=  1.0451361D-03 Max=  8.0276034D-03 conv= 1.00D-06.
 RLE energy=       -0.6899756709
 DE(Corr)= -0.68976207     E(CORR)=     -263.20809070     Delta=-2.49D-02
 NORM(A)=   0.11065090D+01
 Iteration Nr.   3
 **********************
 DD1Dir will call FoFMem   1 times, MxPair=       386
[...]
         NFxFlg=           0 DoJE=F BraDBF=F KetDBF=F FulRan=T
         wScrn=  0.000000 ICntrl=  10002127 IOpCl=  1 I1Cent=           0 NGrid=           0
         NMat0=    1 NMatS0=      1 NMatT0=    0 NMatD0=    1 NMtDS0=    0 NMtDT0=    0
 Symmetry not used in FoFCou.
 Leave Link  703 at Wed Feb 23 16:06:17 2022, MaxMem=  3758096384 cpu:               6.4 elap:               0.3
 (Enter /usr/site/hpc/x86_64/glibc-2.17/broadwell/gaussian/g16_a.03/pgi-16.5/g16/l716.exe)
 Dipole        = 6.03279222D-15-1.06373703D-03 3.47134725D-01
 -------------------------------------------------------------------
 Center     Atomic                   Forces (Hartrees/Bohr)
 Number     Number              X              Y              Z
 -------------------------------------------------------------------
      1        8          -0.000000000    0.000049926   -0.000124470
      2        6          -0.000000000    0.000403987   -0.000089520
      3        8           0.000000000   -0.000237239    0.000242208
      4        8          -0.000000000   -0.000216674   -0.000028217
 -------------------------------------------------------------------
 Cartesian Forces:  Max     0.000403987 RMS     0.000171244
 Leave Link  716 at Wed Feb 23 16:06:17 2022, MaxMem=  3758096384 cpu:               3.0 elap:               0.1
 (Enter /usr/site/hpc/x86_64/glibc-2.17/broadwell/gaussian/g16_a.03/pgi-16.5/g16/l106.exe)
 NDeriv=     12 NFrqRd=  0 NDerD0=      0 MskFDP=       0 MskDFD=       0 MskDF0=       0
 Re-enter D2Numr:  atom   3 IXYZ=3 step-down number 1
 Finish atom      3 at Wed Feb 23 16:06:17 2022
 Maximum difference in off-diagonal FC elements:
 I=  9 J=  6 Difference=    1.1007593158D-04
 Max difference between analytic and numerical forces:
 I=  6 Difference=    4.2925330104D-06
 FinFTb:  IFil= 1 IFilD=  777 LTop=  1 LFil=         4 LTop1=  0 IMask=  1
 FinFTb:  IFil= 2 IFilD=  782 LTop=  1 LFil=       152 LTop1=  0 IMask=  1
 Leave Link  106 at Wed Feb 23 16:06:17 2022, MaxMem=  3758096384 cpu:              17.8 elap:               0.7
 (Enter /usr/site/hpc/x86_64/glibc-2.17/broadwell/gaussian/g16_a.03/pgi-16.5/g16/l716.exe)
 Dipole        = 1.71794395D-16 4.27517118D-32 3.46426480D-01
 Full mass-weighted force constant matrix:
 Low frequencies ---  -12.1175  -11.2771   -7.2225   -0.1323    0.8934    0.9270
 Low frequencies ---  139.1671  586.4066  829.2699
 Diagonal vibrational polarizability:
        0.8551389       9.1414042       0.3930651
 Harmonic frequencies (cm**-1), IR intensities (KM/Mole), Raman scattering
 activities (A**4/AMU), depolarization ratios for plane and unpolarized
 incident light, reduced masses (AMU), force constants (mDyne/A),
 and normal coordinates:
                      1                      2                      3
                     B2                     A1                     B1
 Frequencies --    139.1663               586.4066               829.2699
 Red. masses --     15.0758                15.1692                12.6368
 Frc consts  --      0.1720                 3.0733                 5.1201
 IR Inten    --      4.0787                 0.7260                21.8522
  Atom  AN      X      Y      Z        X      Y      Z        X      Y      Z
     1   8    -0.00   0.62  -0.00     0.00  -0.00  -0.40    -0.20  -0.00  -0.00
     2   6     0.00  -0.48  -0.00    -0.00   0.00  -0.45     0.92   0.00   0.00
     3   8    -0.00  -0.13   0.42     0.00   0.42   0.37    -0.25  -0.00  -0.00
     4   8    -0.00  -0.13  -0.42     0.00  -0.42   0.37    -0.25  -0.00   0.00
                      4                      5                      6
                     A1                     A1                     B2
 Frequencies --    927.9577              1259.4409              1550.4797
 Red. masses --     14.6957                14.2371                13.2729
 Frc consts  --      7.4558                13.3054                18.7996
 IR Inten    --      4.6182                11.3123               310.3299
  Atom  AN      X      Y      Z        X      Y      Z        X      Y      Z
     1   8    -0.00   0.00   0.72     0.00   0.00  -0.02     0.00   0.07   0.00
     2   6     0.00  -0.00  -0.57    -0.00  -0.00   0.66    -0.00   0.83   0.00
     3   8    -0.00   0.24  -0.14     0.00   0.47  -0.24     0.00  -0.34   0.20
     4   8    -0.00  -0.24  -0.14     0.00  -0.47  -0.24     0.00  -0.34  -0.20

 -------------------
 - Thermochemistry -
 -------------------
 Temperature   298.150 Kelvin.  Pressure   1.00000 Atm.
 Atom     1 has atomic number  8 and mass  15.99491
 Atom     2 has atomic number  6 and mass  12.00000
 Atom     3 has atomic number  8 and mass  15.99491
 Atom     4 has atomic number  8 and mass  15.99491
 Molecular mass:    59.98474 amu.
 Principal axes and moments of inertia in atomic units:
                           1         2         3
     Eigenvalues --   133.59611 148.88810 282.48421
           X           -0.00000   0.00000   1.00000
           Y            1.00000   0.00000   0.00000
           Z           -0.00000   1.00000   0.00000
 This molecule is an asymmetric top.
 Rotational symmetry number  2.
 Rotational temperatures (Kelvin)      0.64833     0.58174     0.30662
 Rotational constants (GHZ):          13.50894    12.12146     6.38882
 Zero-point vibrational energy      31657.5 (Joules/Mol)
                                    7.56632 (Kcal/Mol)
 Warning -- explicit consideration of   2 degrees of freedom as
           vibrations may cause significant error
 Vibrational temperatures:    200.23   843.71  1193.13  1335.12  1812.05
          (Kelvin)           2230.79
 
 Zero-point correction=                           0.012058 (Hartree/Particle)
 Thermal correction to Energy=                    0.015856
 Thermal correction to Enthalpy=                  0.016801
 Thermal correction to Gibbs Free Energy=        -0.014121
 Sum of electronic and zero-point Energies=           -263.206004
 Sum of electronic and thermal Energies=              -263.202205
 Sum of electronic and thermal Enthalpies=            -263.201261
 Sum of electronic and thermal Free Energies=         -263.232182
 
                     E (Thermal)             CV                S
                      KCal/Mol        Cal/Mol-Kelvin    Cal/Mol-Kelvin
 Total                    9.950             10.235             65.080
 Electronic               0.000              0.000              1.377
 Translational            0.889              2.981             38.195
 Rotational               0.889              2.981             21.868
 Vibrational              8.173              4.273              3.640
 Vibration     1          0.615              1.914              2.815
 Vibration     2          0.943              1.061              0.474
                       Q            Log10(Q)             Ln(Q)
 Total Bot       0.312805D+07          6.495273         14.955919
 Total V=0       0.110009D+13         12.041428         27.726413
 Vib (Bot)       0.638394D-05         -5.194911        -11.961726
 Vib (Bot)    1  0.146142D+01          0.164777          0.379412
 Vib (Bot)    2  0.258188D+00         -0.588064         -1.354068
 Vib (V=0)       0.224514D+01          0.351243          0.808768
 Vib (V=0)    1  0.204459D+01          0.310607          0.715198
 Vib (V=0)    2  0.106273D+01          0.026421          0.060838
 Electronic      0.200000D+01          0.301030          0.693147
 Translational   0.182606D+08          7.261515         16.720256
 Rotational      0.134165D+05          4.127640          9.504241
 
                                                      co3w2- groundstate energy
                                                             IR Spectrum
 
     1                       1                                                                                                       
     5                       2                          9        8                  5                                    1           
     5                       5                          2        2                  8                                    3           
     0                       9                          8        9                  6                                    9           
 
     X                       X                          X        X                  X                                    X           
     X                                                                                                                               
     X                                                                                                                               
     X                                                                                                                               
     X                                                                                                                               
     X                                                                                                                               
     X                                                                                                                               
     X                                                                                                                               
     X                                                                                                                               
     X                                                                                                                               
     X                                                                                                                               
     X                                                                                                                               
     X                                                                                                                               
     X                                                                                                                               
     X                                                                                                                               
     X                                                                                                                               
     X                                                                                                                               
     X                                                                                                                               
     X                                                                                                                               
     X                                                                                                                               
 
 ***** Axes restored to original set *****
 -------------------------------------------------------------------
 Center     Atomic                   Forces (Hartrees/Bohr)
 Number     Number              X              Y              Z
 -------------------------------------------------------------------
      1        8          -0.000000000   -0.000000000   -0.000039635
      2        6           0.000000000   -0.000000000   -0.000138883
      3        8           0.000192058    0.000000000    0.000089259
      4        8          -0.000192058    0.000000000    0.000089259
 -------------------------------------------------------------------
 Cartesian Forces:  Max     0.000192058 RMS     0.000095989
 Force constants in Cartesian coordinates: 
                1             2             3             4             5 
      1  0.124975D-01
      2  0.000000D+00  0.201831D-01
      3  0.000000D+00  0.000000D+00  0.328524D+00
      4  0.693859D-01  0.000000D+00  0.000000D+00  0.674102D+00
      5  0.000000D+00 -0.709761D-01  0.000000D+00  0.000000D+00  0.249289D+00
      6  0.000000D+00  0.000000D+00 -0.154742D+00  0.000000D+00  0.000000D+00
      7 -0.409205D-01  0.000000D+00 -0.513189D-01 -0.371766D+00  0.000000D+00
      8  0.000000D+00  0.253935D-01  0.000000D+00  0.000000D+00 -0.891568D-01
      9 -0.264350D-01  0.000000D+00 -0.868659D-01 -0.214098D+00  0.000000D+00
     10 -0.409205D-01  0.000000D+00  0.513189D-01 -0.371766D+00  0.000000D+00
     11  0.000000D+00  0.253935D-01  0.000000D+00  0.000000D+00 -0.891568D-01
     12  0.264350D-01  0.000000D+00 -0.868659D-01  0.214098D+00  0.000000D+00
                6             7             8             9            10 
      6  0.396490D+00
      7 -0.163070D+00  0.518679D+00
      8  0.000000D+00  0.000000D+00  0.318389D-01
      9 -0.120929D+00  0.227455D+00  0.000000D+00  0.175456D+00
     10  0.163070D+00 -0.105993D+00  0.000000D+00  0.130666D-01  0.518679D+00
     11  0.000000D+00  0.000000D+00  0.319277D-01  0.000000D+00  0.000000D+00
     12 -0.120929D+00 -0.130666D-01  0.000000D+00  0.323681D-01 -0.227455D+00
               11            12 
     11  0.318389D-01
     12  0.000000D+00  0.175456D+00
 FormGI is forming the generalized inverse of G from B-inverse, IUseBI=4.
 Force constants in internal coordinates: 
                1             2             3             4             5 
      1  0.328499D+00
      2  0.832352D-01  0.631620D+00
      3  0.832352D-01  0.828219D-01  0.631620D+00
      4  0.452688D-01  0.523557D-01 -0.697483D-01  0.571933D-01
      5  0.452688D-01 -0.697483D-01  0.523557D-01  0.171750D-01  0.571933D-01
      6 -0.905376D-01  0.173926D-01  0.173926D-01 -0.743684D-01 -0.743684D-01
      7  0.000000D+00  0.000000D+00  0.000000D+00  0.000000D+00  0.000000D+00
                6             7 
      6  0.148737D+00
      7  0.000000D+00  0.106186D+00
 Leave Link  716 at Wed Feb 23 16:06:18 2022, MaxMem=  3758096384 cpu:              10.2 elap:               0.4
 (Enter /usr/site/hpc/x86_64/glibc-2.17/broadwell/gaussian/g16_a.03/pgi-16.5/g16/l103.exe)

 GradGradGradGradGradGradGradGradGradGradGradGradGradGradGradGradGradGrad
 Berny optimization.
 Red2BG is reusing G-inverse.
 Internal  Forces:  Max     0.000211786 RMS     0.000114191
 Search for a local minimum.
 Step number   1 out of a maximum of    2
 All quantities printed in internal units (Hartrees-Bohrs-Radians)
 Second derivative matrix not updated -- analytic derivatives used.
 The second derivative matrix:
                          R1        R2        R3        A1        A2
           R1           0.32850
           R2           0.08324   0.63162
           R3           0.08324   0.08282   0.63162
           A1           0.04527   0.05236  -0.06975   0.05719
           A2           0.04527  -0.06975   0.05236   0.01718   0.05719
           A3          -0.09054   0.01739   0.01739  -0.07437  -0.07437
           D1          -0.00000  -0.00000   0.00000  -0.00000   0.00000
                          A3        D1
           A3           0.14874
           D1          -0.00000   0.10619
 ITU=  0
     Eigenvalues ---    0.01223   0.10619   0.13881   0.37972   0.57658
     Eigenvalues ---    0.74751
 Angle between quadratic step and forces=  19.59 degrees.
 Linear search not attempted -- first point.
 Iteration  1 RMS(Cart)=  0.00014613 RMS(Int)=  0.00000000
 Iteration  2 RMS(Cart)=  0.00000000 RMS(Int)=  0.00000000
 ITry= 1 IFail=0 DXMaxC= 2.42D-04 DCOld= 1.00D+10 DXMaxT= 3.00D-01 DXLimC= 3.00D+00 Rises=F
 ClnCor:  largest displacement from symmetrization is 7.49D-12 for atom     2.
 Variable       Old X    -DE/DX   Delta X   Delta X   Delta X     New X
                                 (Linear)    (Quad)   (Total)
    R1        2.52957   0.00004   0.00000  -0.00006  -0.00006   2.52951
    R2        2.38049   0.00021   0.00000   0.00031   0.00031   2.38079
    R3        2.38049   0.00021   0.00000   0.00031   0.00031   2.38079
    A1        2.00722  -0.00000   0.00000   0.00004   0.00004   2.00725
    A2        2.00722  -0.00000   0.00000   0.00004   0.00004   2.00725
    A3        2.26875   0.00000   0.00000  -0.00007  -0.00007   2.26868
    D1        3.14159   0.00000   0.00000   0.00000   0.00000   3.14159
         Item               Value     Threshold  Converged?
 Maximum Force            0.000212     0.000450     YES
 RMS     Force            0.000114     0.000300     YES
 Maximum Displacement     0.000242     0.001800     YES
 RMS     Displacement     0.000146     0.001200     YES
 Predicted change in Energy=-6.362471D-08
 Optimization completed.
    -- Stationary point found.
                           ----------------------------
                           !   Optimized Parameters   !
                           ! (Angstroms and Degrees)  !
 --------------------------                            --------------------------
 ! Name  Definition              Value          Derivative Info.                !
 --------------------------------------------------------------------------------
 ! R1    R(1,2)                  1.3386         -DE/DX =    0.0                 !
 ! R2    R(2,3)                  1.2597         -DE/DX =    0.0002              !
 ! R3    R(2,4)                  1.2597         -DE/DX =    0.0002              !
 ! A1    A(1,2,3)              115.005          -DE/DX =    0.0                 !
 ! A2    A(1,2,4)              115.005          -DE/DX =    0.0                 !
 ! A3    A(3,2,4)              129.99           -DE/DX =    0.0                 !
 ! D1    D(1,2,4,3)            180.0            -DE/DX =    0.0                 !
 --------------------------------------------------------------------------------
 GradGradGradGradGradGradGradGradGradGradGradGradGradGradGradGradGradGrad

 Leave Link  103 at Wed Feb 23 16:06:19 2022, MaxMem=  3758096384 cpu:              27.4 elap:               1.0
 (Enter /usr/site/hpc/x86_64/glibc-2.17/broadwell/gaussian/g16_a.03/pgi-16.5/g16/l9999.exe)
 1\1\GINC-N049\Freq\UCCSD-FC\Aug-CC-pVDZ\C1O3(1-,2)\ROOT\23-Feb-2022\0\
 \#P Geom=AllCheck Guess=TCheck SCRF=Check GenChk UCCSD(FC)/Aug-CC-pVDZ
  Freq\\co3w2- groundstate energy\\-1,2\O,0.,0.,0.\C,0.,0.,1.338592\O,1
 .1416294567,0.,1.8710638523\O,-1.1416294567,0.,1.8710638523\\Version=E
 S64L-G16RevA.03\State=2-B2\HF=-262.5183286\MP2=-263.1993438\MP3=-263.1
 960528\MP4D=-263.2106552\MP4DQ=-263.198514\PUHF=-262.5220698\PMP2-0=-2
 63.2016928\PMP3-0=-263.1977538\MP4SDQ=-263.2131657\CCSD=-263.2180613\S
 2=0.760569\S2-1=0.752662\S2A=0.750092\RMSD=7.071e-10\RMSF=9.599e-05\Ze
 roPoint=0.0120577\Thermal=0.0158563\Dipole=0.,0.,-0.3464265\DipoleDeri
 v=0.1092958,0.,0.,0.,-0.2993245,0.,0.,0.,-0.1153889,1.2360422,0.,0.,0.
 ,0.2590226,0.,0.,0.,-0.1341586,-1.1726346,0.,-0.3322259,0.,-0.479868,0
 .,-0.5627628,0.,-0.3758959,-1.1726346,0.,0.3322259,0.,-0.479868,0.,0.5
 627628,0.,-0.3758959\PG=C02V [C2(C1O1),SGV(O2)]\NImag=0\\0.01249752,0.
 ,0.02018311,0.,0.,0.32852407,0.06938594,0.,0.,0.67410185,0.,-0.0709760
 8,0.,0.,0.24928900,0.,0.,-0.15474212,0.,0.,0.39648987,-0.04092055,0.,-
 0.05131894,-0.37176554,0.,-0.16306956,0.51867916,0.,0.02539348,0.,0.,-
 0.08915678,0.,0.,0.03183887,-0.02643499,0.,-0.08686590,-0.21409812,0.,
 -0.12092878,0.22745482,0.,0.17545644,-0.04092055,0.,0.05131894,-0.3717
 6554,0.,0.16306956,-0.10599262,0.,0.01306659,0.51867916,0.,0.02539348,
 0.,0.,-0.08915678,0.,0.,0.03192775,0.,0.,0.03183887,0.02643499,0.,-0.0
 8686590,0.21409812,0.,-0.12092878,-0.01306659,0.,0.03236808,-0.2274548
 2,0.,0.17545644\\0.,0.,0.00003964,0.,0.,0.00013888,-0.00019206,0.,-0.0
 0008926,0.00019206,0.,-0.00008926\\\@


 THE DIFFICULTY IN SCIENCE IS OFTEN NOT SO MUCH HOW
 TO MAKE A DISCOVERY BUT RATHER TO KNOW ONE HAS MADE IT.

                                                   -- J. D. BERNAL
 Job cpu time:       1 days  0 hours 30 minutes  8.5 seconds.
 Elapsed time:       0 days  0 hours 53 minutes 35.6 seconds.
 File lengths (MBytes):  RWF=   1276 Int=      0 D2E=      0 Chk=     44 Scr=      8
 Normal termination of Gaussian 16 at Wed Feb 23 16:06:19 2022.
