 Entering Gaussian System, Link 0=g16
 Input=h2o.com
 Output=h2o.com.log
 Initial command:
 /usr/site/hpc/x86_64/glibc-2.17/haswell/gaussian/g16_a.03/pgi-16.5/g16/l1.exe "/gpfs/gpfs1/scratch/c7441288/MAX/TRAVIS.CO3/bare_co3_co4/Gau-22303.inp" -scrdir="/gpfs/gpfs1/scratch/c7441288/MAX/TRAVIS.CO3/bare_co3_co4/"
 Entering Link 1 = /usr/site/hpc/x86_64/glibc-2.17/haswell/gaussian/g16_a.03/pgi-16.5/g16/l1.exe PID=     22304.
  
 Copyright (c) 1988,1990,1992,1993,1995,1998,2003,2009,2016,
            Gaussian, Inc.  All Rights Reserved.
  
 This is part of the Gaussian(R) 16 program.  It is based on
 the Gaussian(R) 09 system (copyright 2009, Gaussian, Inc.),
 the Gaussian(R) 03 system (copyright 2003, Gaussian, Inc.),
 the Gaussian(R) 98 system (copyright 1998, Gaussian, Inc.),
 the Gaussian(R) 94 system (copyright 1995, Gaussian, Inc.),
 the Gaussian 92(TM) system (copyright 1992, Gaussian, Inc.),
 the Gaussian 90(TM) system (copyright 1990, Gaussian, Inc.),
 the Gaussian 88(TM) system (copyright 1988, Gaussian, Inc.),
 the Gaussian 86(TM) system (copyright 1986, Carnegie Mellon
 University), and the Gaussian 82(TM) system (copyright 1983,
 Carnegie Mellon University). Gaussian is a federally registered
 trademark of Gaussian, Inc.
  
 This software contains proprietary and confidential information,
 including trade secrets, belonging to Gaussian, Inc.
  
 This software is provided under written license and may be
 used, copied, transmitted, or stored only in accord with that
 written license.
  
 The following legend is applicable only to US Government
 contracts under FAR:
  
                    RESTRICTED RIGHTS LEGEND
  
 Use, reproduction and disclosure by the US Government is
 subject to restrictions as set forth in subparagraphs (a)
 and (c) of the Commercial Computer Software - Restricted
 Rights clause in FAR 52.227-19.
  
 Gaussian, Inc.
 340 Quinnipiac St., Bldg. 40, Wallingford CT 06492
  
  
 ---------------------------------------------------------------
 Warning -- This program may not be used in any manner that
 competes with the business of Gaussian, Inc. or will provide
 assistance to any competitor of Gaussian, Inc.  The licensee
 of this program is prohibited from giving any competitor of
 Gaussian, Inc. access to this program.  By using this program,
 the user acknowledges that Gaussian, Inc. is engaged in the
 business of creating and licensing software in the field of
 computational chemistry and represents and warrants to the
 licensee that it is not a competitor of Gaussian, Inc. and that
 it will not use this program in any manner prohibited above.
 ---------------------------------------------------------------
  

 Cite this work as:
 Gaussian 16, Revision A.03,
 M. J. Frisch, G. W. Trucks, H. B. Schlegel, G. E. Scuseria, 
 M. A. Robb, J. R. Cheeseman, G. Scalmani, V. Barone, 
 G. A. Petersson, H. Nakatsuji, X. Li, M. Caricato, A. V. Marenich, 
 J. Bloino, B. G. Janesko, R. Gomperts, B. Mennucci, H. P. Hratchian, 
 J. V. Ortiz, A. F. Izmaylov, J. L. Sonnenberg, D. Williams-Young, 
 F. Ding, F. Lipparini, F. Egidi, J. Goings, B. Peng, A. Petrone, 
 T. Henderson, D. Ranasinghe, V. G. Zakrzewski, J. Gao, N. Rega, 
 G. Zheng, W. Liang, M. Hada, M. Ehara, K. Toyota, R. Fukuda, 
 J. Hasegawa, M. Ishida, T. Nakajima, Y. Honda, O. Kitao, H. Nakai, 
 T. Vreven, K. Throssell, J. A. Montgomery, Jr., J. E. Peralta, 
 F. Ogliaro, M. J. Bearpark, J. J. Heyd, E. N. Brothers, K. N. Kudin, 
 V. N. Staroverov, T. A. Keith, R. Kobayashi, J. Normand, 
 K. Raghavachari, A. P. Rendell, J. C. Burant, S. S. Iyengar, 
 J. Tomasi, M. Cossi, J. M. Millam, M. Klene, C. Adamo, R. Cammi, 
 J. W. Ochterski, R. L. Martin, K. Morokuma, O. Farkas, 
 J. B. Foresman, and D. J. Fox, Gaussian, Inc., Wallingford CT, 2016.
 
 ******************************************
 Gaussian 16:  ES64L-G16RevA.03 25-Dec-2016
                10-Sep-2019 
 ******************************************
 %nproc=8
 Will use up to    8 processors via shared memory.
 %chk=h2o.cc_acp.stable.chk
 ------------------------------------
 #p HF/aug-cc-pVDZ scf=xqc stable=opt
 ------------------------------------
 1/38=1,172=1/1;
 2/12=2,17=6,18=5,40=1/2;
 3/5=16,7=10,11=2,25=1,30=1/1,2,3;
 4//1;
 5/5=2,8=3,13=1,38=5/2,8;
 6/7=2,8=2,9=2,10=2,28=1/1;
 8/6=1,10=90,11=11/1;
 9/8=-3,42=1,46=1/14;
 5/5=2,8=3,17=40,38=5/8(-2);
 6/7=2,8=2,9=2,10=2,28=1/1;
 99/5=1,9=1/99;
 Leave Link    1 at Tue Sep 10 09:05:36 2019, MaxMem=           0 cpu:               5.6 elap:               0.8
 (Enter /usr/site/hpc/x86_64/glibc-2.17/haswell/gaussian/g16_a.03/pgi-16.5/g16/l101.exe)
 ----------------------
 h2o groundstate energy
 ----------------------
 Symbolic Z-matrix:
 Charge =  0 Multiplicity = 1
 O                     0.        0.        0. 
 H                     0.        0.        0.95 
 H                     0.89567   0.       -0.31666 
 
 ITRead=  0  0  0
 MicOpt= -1 -1 -1
 NAtoms=      3 NQM=        3 NQMF=       0 NMMI=      0 NMMIF=      0
                NMic=       0 NMicF=      0.
                    Isotopes and Nuclear Properties:
 (Nuclear quadrupole moments (NQMom) in fm**2, nuclear magnetic moments (NMagM)
  in nuclear magnetons)

  Atom         1           2           3
 IAtWgt=          16           1           1
 AtmWgt=  15.9949146   1.0078250   1.0078250
 NucSpn=           0           1           1
 AtZEff=  -0.0000000  -0.0000000  -0.0000000
 NQMom=    0.0000000   0.0000000   0.0000000
 NMagM=    0.0000000   2.7928460   2.7928460
 AtZNuc=   8.0000000   1.0000000   1.0000000
 Leave Link  101 at Tue Sep 10 09:05:37 2019, MaxMem=   104857600 cpu:               5.6 elap:               0.8
 (Enter /usr/site/hpc/x86_64/glibc-2.17/haswell/gaussian/g16_a.03/pgi-16.5/g16/l202.exe)
                          Input orientation:                          
 ---------------------------------------------------------------------
 Center     Atomic      Atomic             Coordinates (Angstroms)
 Number     Number       Type             X           Y           Z
 ---------------------------------------------------------------------
      1          8           0        0.000000    0.000000    0.000000
      2          1           0        0.000000    0.000000    0.950000
      3          1           0        0.895670    0.000000   -0.316663
 ---------------------------------------------------------------------
                    Distance matrix (angstroms):
                    1          2          3
     1  O    0.000000
     2  H    0.950000   0.000000
     3  H    0.950000   1.551341   0.000000
 Stoichiometry    H2O
 Framework group  C2V[C2(O),SGV(H2)]
 Deg. of freedom     2
 Full point group                 C2V     NOp   4
 Largest Abelian subgroup         C2V     NOp   4
 Largest concise Abelian subgroup C2      NOp   2
                         Standard orientation:                         
 ---------------------------------------------------------------------
 Center     Atomic      Atomic             Coordinates (Angstroms)
 Number     Number       Type             X           Y           Z
 ---------------------------------------------------------------------
      1          8           0        0.000000    0.000000    0.109697
      2          1           0       -0.000000   -0.775671   -0.438788
      3          1           0        0.000000    0.775671   -0.438788
 ---------------------------------------------------------------------
 Rotational constants (GHZ):         938.4666026         416.7229588         288.5799821
 Leave Link  202 at Tue Sep 10 09:05:37 2019, MaxMem=   104857600 cpu:               0.6 elap:               0.1
 (Enter /usr/site/hpc/x86_64/glibc-2.17/haswell/gaussian/g16_a.03/pgi-16.5/g16/l301.exe)
 Standard basis: Aug-CC-pVDZ (5D, 7F)
 Ernie: Thresh=  0.10000D-02 Tol=  0.10000D-05 Strict=F.
 Ernie:  2 primitive shells out of 39 were deleted.
 There are    20 symmetry adapted cartesian basis functions of A1  symmetry.
 There are     4 symmetry adapted cartesian basis functions of A2  symmetry.
 There are     7 symmetry adapted cartesian basis functions of B1  symmetry.
 There are    12 symmetry adapted cartesian basis functions of B2  symmetry.
 There are    18 symmetry adapted basis functions of A1  symmetry.
 There are     4 symmetry adapted basis functions of A2  symmetry.
 There are     7 symmetry adapted basis functions of B1  symmetry.
 There are    12 symmetry adapted basis functions of B2  symmetry.
    41 basis functions,    65 primitive gaussians,    43 cartesian basis functions
     5 alpha electrons        5 beta electrons
       nuclear repulsion energy         9.2535676257 Hartrees.
 IExCor=    0 DFT=F Ex=HF Corr=None ExCW=0 ScaHFX=  1.000000
 ScaDFX=  1.000000  1.000000  1.000000  1.000000 ScalE2=  1.000000  1.000000
 IRadAn=      5 IRanWt=     -1 IRanGd=            0 ICorTp=0 IEmpDi=  4
 NAtoms=    3 NActive=    3 NUniq=    2 SFac= 2.25D+00 NAtFMM=   60 NAOKFM=F Big=F
 Integral buffers will be    131072 words long.
 Raffenetti 2 integral format.
 Two-electron integral symmetry is turned on.
 Leave Link  301 at Tue Sep 10 09:05:37 2019, MaxMem=   104857600 cpu:               0.3 elap:               0.1
 (Enter /usr/site/hpc/x86_64/glibc-2.17/haswell/gaussian/g16_a.03/pgi-16.5/g16/l302.exe)
 NPDir=0 NMtPBC=     1 NCelOv=     1 NCel=       1 NClECP=     1 NCelD=      1
         NCelK=      1 NCelE2=     1 NClLst=     1 CellRange=     0.0.
 One-electron integrals computed using PRISM.
 One-electron integral symmetry used in STVInt
 NBasis=    41 RedAO= T EigKep=  2.77D-03  NBF=    18     4     7    12
 NBsUse=    41 1.00D-06 EigRej= -1.00D+00 NBFU=    18     4     7    12
 Leave Link  302 at Tue Sep 10 09:05:37 2019, MaxMem=   104857600 cpu:               1.0 elap:               0.2
 (Enter /usr/site/hpc/x86_64/glibc-2.17/haswell/gaussian/g16_a.03/pgi-16.5/g16/l303.exe)
 DipDrv:  MaxL=1.
 Leave Link  303 at Tue Sep 10 09:05:37 2019, MaxMem=   104857600 cpu:               0.2 elap:               0.0
 (Enter /usr/site/hpc/x86_64/glibc-2.17/haswell/gaussian/g16_a.03/pgi-16.5/g16/l401.exe)
 ExpMin= 2.97D-02 ExpMax= 1.17D+04 ExpMxC= 4.01D+02 IAcc=3 IRadAn=         5 AccDes= 0.00D+00
 Harris functional with IExCor=  205 and IRadAn=       5 diagonalized for initial guess.
 HarFok:  IExCor=  205 AccDes= 0.00D+00 IRadAn=         5 IDoV= 1 UseB2=F ITyADJ=14
 ICtDFT=  3500011 ScaDFX=  1.000000  1.000000  1.000000  1.000000
 FoFCou: FMM=F IPFlag=           0 FMFlag=      100000 FMFlg1=           0
         NFxFlg=           0 DoJE=T BraDBF=F KetDBF=T FulRan=T
         wScrn=  0.000000 ICntrl=       500 IOpCl=  0 I1Cent=   200000004 NGrid=           0
         NMat0=    1 NMatS0=      1 NMatT0=    0 NMatD0=    1 NMtDS0=    0 NMtDT0=    0
 Petite list used in FoFCou.
 Harris En= -76.1256882669665    
 JPrj=0 DoOrth=F DoCkMO=F.
 Initial guess orbital symmetries:
       Occupied  (A1) (A1) (B2) (A1) (B1)
       Virtual   (A1) (B2) (A1) (B1) (A1) (B2) (B2) (A1) (A2) (A1)
                 (B1) (B2) (A1) (B2) (B2) (A1) (B1) (A1) (A2) (A1)
                 (B1) (B2) (A1) (B2) (A2) (B1) (B2) (A1) (A1) (B2)
                 (A1) (B1) (A1) (A2) (A1) (B2)
 The electronic state of the initial guess is 1-A1.
 Leave Link  401 at Tue Sep 10 09:05:37 2019, MaxMem=   104857600 cpu:               1.3 elap:               0.2
 (Enter /usr/site/hpc/x86_64/glibc-2.17/haswell/gaussian/g16_a.03/pgi-16.5/g16/l502.exe)
 Keep R1 ints in memory in symmetry-blocked form, NReq=2035128.
 FoFCou: FMM=F IPFlag=           0 FMFlag=           0 FMFlg1=           0
         NFxFlg=           0 DoJE=F BraDBF=F KetDBF=F FulRan=T
         wScrn=  0.000000 ICntrl=       600 IOpCl=  0 I1Cent=           0 NGrid=           0
         NMat0=    1 NMatS0=    861 NMatT0=    0 NMatD0=    1 NMtDS0=    0 NMtDT0=    0
 Petite list used in FoFCou.
 Closed shell SCF:
 Using DIIS extrapolation, IDIIS=  1040.
 NGot=   104857600 LenX=   104751108 LenY=   104748818
 Requested convergence on RMS density matrix=1.00D-08 within  32 cycles.
 Requested convergence on MAX density matrix=1.00D-06.
 Requested convergence on             energy=1.00D-06.
 No special actions if energy rises.

 Cycle   1  Pass 1  IDiag  1:
 E= -75.9640695856823    
 DIIS: error= 5.14D-02 at cycle   1 NSaved=   1.
 NSaved= 1 IEnMin= 1 EnMin= -75.9640695856823     IErMin= 1 ErrMin= 5.14D-02
 ErrMax= 5.14D-02  0.00D+00 EMaxC= 1.00D-01 BMatC= 1.19D-01 BMatP= 1.19D-01
 IDIUse=3 WtCom= 4.86D-01 WtEn= 5.14D-01
 Coeff-Com:  0.100D+01
 Coeff-En:   0.100D+01
 Coeff:      0.100D+01
 Gap=     0.457 Goal=   None    Shift=    0.000
 GapD=    0.457 DampG=2.000 DampE=0.500 DampFc=1.0000 IDamp=-1.
 RMSDP=6.31D-03 MaxDP=1.19D-01              OVMax= 1.17D-01

 Cycle   2  Pass 1  IDiag  1:
 E= -76.0097372121740     Delta-E=       -0.045667626492 Rises=F Damp=F
 DIIS: error= 3.95D-02 at cycle   2 NSaved=   2.
 NSaved= 2 IEnMin= 2 EnMin= -76.0097372121740     IErMin= 2 ErrMin= 3.95D-02
 ErrMax= 3.95D-02  0.00D+00 EMaxC= 1.00D-01 BMatC= 4.50D-02 BMatP= 1.19D-01
 IDIUse=3 WtCom= 6.05D-01 WtEn= 3.95D-01
 Coeff-Com:  0.370D+00 0.630D+00
 Coeff-En:   0.201D+00 0.799D+00
 Coeff:      0.304D+00 0.696D+00
 Gap=     0.562 Goal=   None    Shift=    0.000
 RMSDP=2.92D-03 MaxDP=5.43D-02 DE=-4.57D-02 OVMax= 5.85D-02

 Cycle   3  Pass 1  IDiag  1:
 E= -76.0405027862302     Delta-E=       -0.030765574056 Rises=F Damp=F
 DIIS: error= 4.79D-03 at cycle   3 NSaved=   3.
 NSaved= 3 IEnMin= 3 EnMin= -76.0405027862302     IErMin= 3 ErrMin= 4.79D-03
 ErrMax= 4.79D-03  0.00D+00 EMaxC= 1.00D-01 BMatC= 1.17D-03 BMatP= 4.50D-02
 IDIUse=3 WtCom= 9.52D-01 WtEn= 4.79D-02
 Coeff-Com: -0.371D-01 0.946D-01 0.943D+00
 Coeff-En:   0.000D+00 0.000D+00 0.100D+01
 Coeff:     -0.353D-01 0.900D-01 0.945D+00
 Gap=     0.543 Goal=   None    Shift=    0.000
 RMSDP=4.71D-04 MaxDP=8.05D-03 DE=-3.08D-02 OVMax= 9.04D-03

 Cycle   4  Pass 1  IDiag  1:
 E= -76.0413742502847     Delta-E=       -0.000871464055 Rises=F Damp=F
 DIIS: error= 5.83D-04 at cycle   4 NSaved=   4.
 NSaved= 4 IEnMin= 4 EnMin= -76.0413742502847     IErMin= 4 ErrMin= 5.83D-04
 ErrMax= 5.83D-04  0.00D+00 EMaxC= 1.00D-01 BMatC= 6.70D-06 BMatP= 1.17D-03
 IDIUse=3 WtCom= 9.94D-01 WtEn= 5.83D-03
 Coeff-Com:  0.893D-02-0.435D-01-0.329D+00 0.136D+01
 Coeff-En:   0.000D+00 0.000D+00 0.000D+00 0.100D+01
 Coeff:      0.888D-02-0.432D-01-0.327D+00 0.136D+01
 Gap=     0.544 Goal=   None    Shift=    0.000
 RMSDP=1.09D-04 MaxDP=1.03D-03 DE=-8.71D-04 OVMax= 2.16D-03

 Cycle   5  Pass 1  IDiag  1:
 E= -76.0413905161194     Delta-E=       -0.000016265835 Rises=F Damp=F
 DIIS: error= 1.56D-04 at cycle   5 NSaved=   5.
 NSaved= 5 IEnMin= 5 EnMin= -76.0413905161194     IErMin= 5 ErrMin= 1.56D-04
 ErrMax= 1.56D-04  0.00D+00 EMaxC= 1.00D-01 BMatC= 2.68D-07 BMatP= 6.70D-06
 IDIUse=3 WtCom= 9.98D-01 WtEn= 1.56D-03
 Coeff-Com: -0.413D-03 0.470D-02 0.333D-01-0.305D+00 0.127D+01
 Coeff-En:   0.000D+00 0.000D+00 0.000D+00 0.000D+00 0.100D+01
 Coeff:     -0.413D-03 0.469D-02 0.333D-01-0.304D+00 0.127D+01
 Gap=     0.544 Goal=   None    Shift=    0.000
 RMSDP=2.48D-05 MaxDP=3.45D-04 DE=-1.63D-05 OVMax= 5.36D-04

 Cycle   6  Pass 1  IDiag  1:
 E= -76.0413913297431     Delta-E=       -0.000000813624 Rises=F Damp=F
 DIIS: error= 2.88D-05 at cycle   6 NSaved=   6.
 NSaved= 6 IEnMin= 6 EnMin= -76.0413913297431     IErMin= 6 ErrMin= 2.88D-05
 ErrMax= 2.88D-05  0.00D+00 EMaxC= 1.00D-01 BMatC= 9.85D-09 BMatP= 2.68D-07
 IDIUse=1 WtCom= 1.00D+00 WtEn= 0.00D+00
 Coeff-Com: -0.307D-03 0.116D-02 0.887D-02-0.139D-01-0.216D+00 0.122D+01
 Coeff:     -0.307D-03 0.116D-02 0.887D-02-0.139D-01-0.216D+00 0.122D+01
 Gap=     0.545 Goal=   None    Shift=    0.000
 RMSDP=4.08D-06 MaxDP=7.96D-05 DE=-8.14D-07 OVMax= 1.08D-04

 Cycle   7  Pass 1  IDiag  1:
 E= -76.0413913604467     Delta-E=       -0.000000030704 Rises=F Damp=F
 DIIS: error= 6.18D-06 at cycle   7 NSaved=   7.
 NSaved= 7 IEnMin= 7 EnMin= -76.0413913604467     IErMin= 7 ErrMin= 6.18D-06
 ErrMax= 6.18D-06  0.00D+00 EMaxC= 1.00D-01 BMatC= 5.23D-10 BMatP= 9.85D-09
 IDIUse=1 WtCom= 1.00D+00 WtEn= 0.00D+00
 Coeff-Com:  0.131D-03-0.662D-03-0.514D-02 0.228D-01 0.685D-02-0.394D+00
 Coeff-Com:  0.137D+01
 Coeff:      0.131D-03-0.662D-03-0.514D-02 0.228D-01 0.685D-02-0.394D+00
 Coeff:      0.137D+01
 Gap=     0.545 Goal=   None    Shift=    0.000
 RMSDP=8.56D-07 MaxDP=1.71D-05 DE=-3.07D-08 OVMax= 2.48D-05

 Cycle   8  Pass 1  IDiag  1:
 E= -76.0413913618272     Delta-E=       -0.000000001380 Rises=F Damp=F
 DIIS: error= 7.18D-07 at cycle   8 NSaved=   8.
 NSaved= 8 IEnMin= 8 EnMin= -76.0413913618272     IErMin= 8 ErrMin= 7.18D-07
 ErrMax= 7.18D-07  0.00D+00 EMaxC= 1.00D-01 BMatC= 1.33D-11 BMatP= 5.23D-10
 IDIUse=1 WtCom= 1.00D+00 WtEn= 0.00D+00
 Coeff-Com: -0.257D-04 0.144D-03 0.116D-02-0.631D-02 0.569D-02 0.756D-01
 Coeff-Com: -0.413D+00 0.134D+01
 Coeff:     -0.257D-04 0.144D-03 0.116D-02-0.631D-02 0.569D-02 0.756D-01
 Coeff:     -0.413D+00 0.134D+01
 Gap=     0.545 Goal=   None    Shift=    0.000
 RMSDP=1.85D-07 MaxDP=2.48D-06 DE=-1.38D-09 OVMax= 3.49D-06

 Cycle   9  Pass 1  IDiag  1:
 E= -76.0413913618600     Delta-E=       -0.000000000033 Rises=F Damp=F
 DIIS: error= 7.98D-08 at cycle   9 NSaved=   9.
 NSaved= 9 IEnMin= 9 EnMin= -76.0413913618600     IErMin= 9 ErrMin= 7.98D-08
 ErrMax= 7.98D-08  0.00D+00 EMaxC= 1.00D-01 BMatC= 1.89D-13 BMatP= 1.33D-11
 IDIUse=1 WtCom= 1.00D+00 WtEn= 0.00D+00
 Coeff-Com:  0.269D-05-0.164D-04-0.144D-03 0.948D-03-0.143D-02-0.910D-02
 Coeff-Com:  0.688D-01-0.308D+00 0.125D+01
 Coeff:      0.269D-05-0.164D-04-0.144D-03 0.948D-03-0.143D-02-0.910D-02
 Coeff:      0.688D-01-0.308D+00 0.125D+01
 Gap=     0.545 Goal=   None    Shift=    0.000
 RMSDP=2.17D-08 MaxDP=2.11D-07 DE=-3.28D-11 OVMax= 3.25D-07

 Cycle  10  Pass 1  IDiag  1:
 E= -76.0413913618605     Delta-E=       -0.000000000000 Rises=F Damp=F
 DIIS: error= 2.36D-08 at cycle  10 NSaved=  10.
 NSaved=10 IEnMin=10 EnMin= -76.0413913618605     IErMin=10 ErrMin= 2.36D-08
 ErrMax= 2.36D-08  0.00D+00 EMaxC= 1.00D-01 BMatC= 9.82D-15 BMatP= 1.89D-13
 IDIUse=1 WtCom= 1.00D+00 WtEn= 0.00D+00
 Coeff-Com: -0.169D-06 0.146D-05 0.180D-04-0.175D-03 0.459D-03 0.784D-03
 Coeff-Com: -0.122D-01 0.693D-01-0.454D+00 0.140D+01
 Coeff:     -0.169D-06 0.146D-05 0.180D-04-0.175D-03 0.459D-03 0.784D-03
 Coeff:     -0.122D-01 0.693D-01-0.454D+00 0.140D+01
 Gap=     0.545 Goal=   None    Shift=    0.000
 RMSDP=5.09D-09 MaxDP=4.87D-08 DE=-4.26D-13 OVMax= 9.98D-08

 SCF Done:  E(RHF) =  -76.0413913619     A.U. after   10 cycles
            NFock= 10  Conv=0.51D-08     -V/T= 2.0012
 KE= 7.594941898282D+01 PE=-1.990406538462D+02 EE= 3.779627587587D+01
 Leave Link  502 at Tue Sep 10 09:05:37 2019, MaxMem=   104857600 cpu:               1.5 elap:               0.2
 (Enter /usr/site/hpc/x86_64/glibc-2.17/haswell/gaussian/g16_a.03/pgi-16.5/g16/l508.exe)
 QCSCF skips out because SCF is already converged.
 Leave Link  508 at Tue Sep 10 09:05:37 2019, MaxMem=   104857600 cpu:               0.0 elap:               0.0
 (Enter /usr/site/hpc/x86_64/glibc-2.17/haswell/gaussian/g16_a.03/pgi-16.5/g16/l601.exe)
 Copying SCF densities to generalized density rwf, IOpCl= 0 IROHF=0.

 **********************************************************************

            Population analysis using the SCF density.

 **********************************************************************

 Orbital symmetries:
       Occupied  (A1) (A1) (B2) (A1) (B1)
       Virtual   (A1) (B2) (A1) (B1) (A1) (B2) (B2) (A1) (A2) (A1)
                 (B1) (B2) (A1) (B2) (B2) (A1) (B1) (A1) (A2) (A1)
                 (B2) (B1) (A1) (B2) (A2) (B1) (A1) (B2) (A1) (B2)
                 (A1) (B1) (A1) (A2) (A1) (B2)
 The electronic state is 1-A1.
 Alpha  occ. eigenvalues --  -20.57374  -1.35687  -0.73286  -0.57725  -0.50862
 Alpha virt. eigenvalues --    0.03595   0.05753   0.17438   0.19573   0.22236
 Alpha virt. eigenvalues --    0.22964   0.29590   0.32507   0.38360   0.41503
 Alpha virt. eigenvalues --    0.44248   0.53526   0.65197   0.65722   0.82904
 Alpha virt. eigenvalues --    0.91494   1.09451   1.10626   1.14974   1.33960
 Alpha virt. eigenvalues --    1.47595   1.49134   1.58162   1.99767   2.03175
 Alpha virt. eigenvalues --    2.09691   2.41966   2.48867   2.63876   2.73194
 Alpha virt. eigenvalues --    2.92417   3.66916   3.68460   3.70678   4.07711
 Alpha virt. eigenvalues --    4.30814
          Condensed to atoms (all electrons):
               1          2          3
     1  O    7.606453   0.343314   0.343314
     2  H    0.343314   0.554034  -0.043888
     3  H    0.343314  -0.043888   0.554034
 Mulliken charges:
               1
     1  O   -0.293080
     2  H    0.146540
     3  H    0.146540
 Sum of Mulliken charges =   0.00000
 Mulliken charges with hydrogens summed into heavy atoms:
               1
     1  O    0.000000
 Electronic spatial extent (au):  <R**2>=             19.4532
 Charge=              0.0000 electrons
 Dipole moment (field-independent basis, Debye):
    X=              0.0000    Y=             -0.0000    Z=             -1.9103  Tot=              1.9103
 Quadrupole moment (field-independent basis, Debye-Ang):
   XX=             -7.5818   YY=             -4.0826   ZZ=             -6.4089
   XY=              0.0000   XZ=             -0.0000   YZ=              0.0000
 Traceless Quadrupole moment (field-independent basis, Debye-Ang):
   XX=             -1.5574   YY=              1.9419   ZZ=             -0.3845
   XY=              0.0000   XZ=             -0.0000   YZ=              0.0000
 Octapole moment (field-independent basis, Debye-Ang**2):
  XXX=             -0.0000  YYY=             -0.0000  ZZZ=             -1.1164  XYY=              0.0000
  XXY=              0.0000  XXZ=             -0.2895  XZZ=             -0.0000  YZZ=             -0.0000
  YYZ=             -1.3744  XYZ=             -0.0000
 Hexadecapole moment (field-independent basis, Debye-Ang**3):
 XXXX=             -6.8287 YYYY=             -5.7941 ZZZZ=             -7.2609 XXXY=             -0.0000
 XXXZ=              0.0000 YYYX=             -0.0000 YYYZ=              0.0000 ZZZX=              0.0000
 ZZZY=             -0.0000 XXYY=             -2.4599 XXZZ=             -2.3884 YYZZ=             -1.9383
 XXYZ=             -0.0000 YYXZ=             -0.0000 ZZXY=             -0.0000
 N-N= 9.253567625685D+00 E-N=-1.990406540326D+02  KE= 7.594941898282D+01
 Symmetry A1   KE= 6.795087571256D+01
 Symmetry A2   KE= 1.809790791130D-33
 Symmetry B1   KE= 4.438501907273D+00
 Symmetry B2   KE= 3.560041362994D+00
 No NMR shielding tensors so no spin-rotation constants.
 Leave Link  601 at Tue Sep 10 09:05:38 2019, MaxMem=   104857600 cpu:               0.9 elap:               0.1
 (Enter /usr/site/hpc/x86_64/glibc-2.17/haswell/gaussian/g16_a.03/pgi-16.5/g16/l801.exe)
 Range of M.O.s used for correlation:     1    41
 NBasis=    41 NAE=     5 NBE=     5 NFC=     0 NFV=     0
 NROrb=     41 NOA=     5 NOB=     5 NVA=    36 NVB=    36
 Leave Link  801 at Tue Sep 10 09:05:38 2019, MaxMem=   104857600 cpu:               0.1 elap:               0.0
 (Enter /usr/site/hpc/x86_64/glibc-2.17/haswell/gaussian/g16_a.03/pgi-16.5/g16/l914.exe)
 RHF ground state
 Doing stability rather than CIS.
 Keep R1 and R2 ints in memory in symmetry-blocked form, NReq=2035468.
 FoFCou: FMM=F IPFlag=           0 FMFlag=           0 FMFlg1=           0
         NFxFlg=           0 DoJE=F BraDBF=F KetDBF=F FulRan=T
         wScrn=  0.000000 ICntrl=       600 IOpCl=  0 I1Cent=           0 NGrid=           0
         NMat0=    1 NMatS0=    861 NMatT0=    0 NMatD0=    1 NMtDS0=    0 NMtDT0=    0
 Petite list used in FoFCou.
 MDV=   104857600 DFT=F DoStab=T Mixed=F DoRPA=F DoScal=F NonHer=F
 Making orbital integer symmetry assigments:
 Orbital symmetries:
       Occupied  (A1) (A1) (B2) (A1) (B1)
       Virtual   (A1) (B2) (A1) (B1) (A1) (B2) (B2) (A1) (A2) (A1)
                 (B1) (B2) (A1) (B2) (B2) (A1) (B1) (A1) (A2) (A1)
                 (B2) (B1) (A1) (B2) (A2) (B1) (A1) (B2) (A1) (B2)
                 (A1) (B1) (A1) (A2) (A1) (B2)
    24 initial guesses have been made.
 Convergence on wavefunction:    0.001000000000000
 Davidson Disk Diagonalization:  ConvIn= 1.00D-03 SkipCon=T Conv= 1.00D-03.
 Max sub-space:   720 roots to seek:    24 dimension of matrix:          360
 Iteration     1 Dimension    24 NMult     0 NNew     24
 CISAX will form    24 AO SS matrices at one time.
 NMat=    24 NSing=    12 JSym2X= 2.
 New state      1 was old state      2
 Excitation Energies [eV] at current iteration:
 Root      1 :     7.731362402003895
 Root      2 :     9.024641285823634
 Root      3 :     9.464550000183189
 Root      4 :     9.935616992354948
 Root      5 :    10.316796202265400
 Root      6 :    10.533741763263160
 Root      7 :    11.035344114601270
 Root      8 :    11.052788847171000
 Root      9 :    11.367215900684870
 Root     10 :    12.063166242338870
 Root     11 :    12.618470121081100
 Root     12 :    12.646109035276510
 Root     13 :    12.753319394165830
 Root     14 :    12.945913491974850
 Root     15 :    13.149109225082530
 Root     16 :    13.526166310073010
 Root     17 :    13.528807923585530
 Root     18 :    13.889785773958230
 Root     19 :    14.374160343676710
 Root     20 :    14.388803686630900
 Root     21 :    14.536404242909440
 Root     22 :    14.627000588801580
 Root     23 :    15.632452930917540
 Root     24 :    19.979448238821370
 Iteration     2 Dimension    48 NMult    24 NNew     24
 CISAX will form    24 AO SS matrices at one time.
 NMat=    24 NSing=    12 JSym2X= 2.
 Root      1 not converged, maximum delta is    0.040737725481607
 Excitation Energies [eV] at current iteration:
 Root      1 :     7.366549528818163   Change is   -0.364812873185731
 Root      2 :     8.685799479759545   Change is   -0.778750520423645
 Root      3 :     8.911144468929136   Change is   -0.113496816894497
 Root      4 :     9.517079963886095   Change is   -0.418537028468853
 Root      5 :     9.732181239212036   Change is   -0.584614963053361
 Root      6 :    10.071117336550180   Change is   -0.981671510620823
 Root      7 :    10.427456396511210   Change is   -0.106285366751951
 Root      8 :    10.843924616909990   Change is   -0.191419497691288
 Root      9 :    11.145735567929920   Change is   -0.221480332754949
 Root     10 :    12.030272120356020   Change is   -0.032894121982855
 Root     11 :    12.221246917258690   Change is   -0.424862118017815
 Root     12 :    12.453592024503000   Change is   -0.164878096578102
 Root     13 :    12.496083101245980   Change is   -0.257236292919859
 Root     14 :    12.517613489495030   Change is   -0.631495735587500
 Root     15 :    12.673773525860780   Change is   -0.272139966114071
 Root     16 :    12.994964068150210   Change is   -0.894821705808014
 Root     17 :    13.345267649298150   Change is   -0.180898660774859
 Root     18 :    13.377603446711300   Change is   -0.151204476874235
 Root     19 :    14.059114042866020   Change is   -0.315046300810689
 Root     20 :    14.315640526384240   Change is   -0.073163160246653
 Root     21 :    14.357249146423420   Change is   -0.269751442378157
 Root     22 :    14.509349323059930   Change is   -0.027054919849507
 Root     23 :    14.984862891604560   Change is   -4.994585347216803
 Root     24 :    15.094893976298370   Change is   -0.537558954619171
 Iteration     3 Dimension    54 NMult    48 NNew      6
 CISAX will form     6 AO SS matrices at one time.
 NMat=     6 NSing=     3 JSym2X= 2.
 Root      1 not converged, maximum delta is    0.011903708774671
 Excitation Energies [eV] at current iteration:
 Root      1 :     7.354723261545043   Change is   -0.011826267273120
 Root      2 :     8.399284874344124   Change is   -0.286514605415422
 Root      3 :     8.908979577908852   Change is   -0.002164891020285
 Root      4 :     9.493510706448811   Change is   -0.023569257437284
 Root      5 :    10.423992252240610   Change is   -0.003464144270605
 Root      6 :    10.838782046851700   Change is   -0.005142570058286
 Iteration     4 Dimension    60 NMult    54 NNew      6
 CISAX will form     6 AO SS matrices at one time.
 NMat=     6 NSing=     3 JSym2X= 2.
 Root      1 not converged, maximum delta is    0.001372058371380
 Excitation Energies [eV] at current iteration:
 Root      1 :     7.354539198977927   Change is   -0.000184062567117
 Root      2 :     8.348141004603153   Change is   -0.051143869740970
 Root      3 :     8.908945117614271   Change is   -0.000034460294581
 Root      4 :     9.493101335300707   Change is   -0.000409371148104
 Root      5 :    10.423791719043190   Change is   -0.000200533197419
 Root      6 :    10.830800487300620   Change is   -0.007981559551084
 Iteration     5 Dimension    66 NMult    60 NNew      6
 CISAX will form     6 AO SS matrices at one time.
 NMat=     6 NSing=     3 JSym2X= 2.
 Root      1 has converged.
 Excitation Energies [eV] at current iteration:
 Root      1 :     7.354532797096569   Change is   -0.000006401881357
 Root      2 :     8.344754953598903   Change is   -0.003386051004250
 Root      3 :     8.908943766870580   Change is   -0.000001350743692
 Root      4 :     9.493095625306964   Change is   -0.000005709993744
 Root      5 :    10.423789336283130   Change is   -0.000002382760058
 Root      6 :    10.830525666228010   Change is   -0.000274821072611
 Convergence achieved on expansion vectors.
 ***********************************************************************
 Stability analysis using <AA,BB:AA,BB> singles matrix:
 ***********************************************************************
 1PDM for each excited state written to RWF  633
 Ground to excited state transition densities written to RWF  633

 Eigenvectors of the stability matrix:
 
 Eigenvector   1:      Triplet-B1   Eigenvalue= 0.2702741  <S**2>=2.000
       5 ->  6         0.51024
       5 ->  8        -0.27138
       5 -> 10        -0.33560
       5 -> 18         0.17072
 The wavefunction is stable under the perturbations considered.
 Leave Link  914 at Tue Sep 10 09:05:38 2019, MaxMem=   104857600 cpu:               2.1 elap:               0.3
 (Enter /usr/site/hpc/x86_64/glibc-2.17/haswell/gaussian/g16_a.03/pgi-16.5/g16/l508.exe)
 The wavefunction is already stable.
 Leave Link  508 at Tue Sep 10 09:05:38 2019, MaxMem=   104857600 cpu:               0.0 elap:               0.0
 (Enter /usr/site/hpc/x86_64/glibc-2.17/haswell/gaussian/g16_a.03/pgi-16.5/g16/l601.exe)
 Copying SCF densities to generalized density rwf, IOpCl= 0 IROHF=0.

 **********************************************************************

            Population analysis using the SCF density.

 **********************************************************************

 Orbital symmetries:
       Occupied  (A1) (A1) (B2) (A1) (B1)
       Virtual   (A1) (B2) (A1) (B1) (A1) (B2) (B2) (A1) (A2) (A1)
                 (B1) (B2) (A1) (B2) (B2) (A1) (B1) (A1) (A2) (A1)
                 (B2) (B1) (A1) (B2) (A2) (B1) (A1) (B2) (A1) (B2)
                 (A1) (B1) (A1) (A2) (A1) (B2)
 The electronic state is 1-A1.
 Alpha  occ. eigenvalues --  -20.57374  -1.35687  -0.73286  -0.57725  -0.50862
 Alpha virt. eigenvalues --    0.03595   0.05753   0.17438   0.19573   0.22236
 Alpha virt. eigenvalues --    0.22964   0.29590   0.32507   0.38360   0.41503
 Alpha virt. eigenvalues --    0.44248   0.53526   0.65197   0.65722   0.82904
 Alpha virt. eigenvalues --    0.91494   1.09451   1.10626   1.14974   1.33960
 Alpha virt. eigenvalues --    1.47595   1.49134   1.58162   1.99767   2.03175
 Alpha virt. eigenvalues --    2.09691   2.41966   2.48867   2.63876   2.73194
 Alpha virt. eigenvalues --    2.92417   3.66916   3.68460   3.70678   4.07711
 Alpha virt. eigenvalues --    4.30814
          Condensed to atoms (all electrons):
               1          2          3
     1  O    7.606453   0.343314   0.343314
     2  H    0.343314   0.554034  -0.043888
     3  H    0.343314  -0.043888   0.554034
 Mulliken charges:
               1
     1  O   -0.293080
     2  H    0.146540
     3  H    0.146540
 Sum of Mulliken charges =   0.00000
 Mulliken charges with hydrogens summed into heavy atoms:
               1
     1  O    0.000000
 Electronic spatial extent (au):  <R**2>=             19.4532
 Charge=              0.0000 electrons
 Dipole moment (field-independent basis, Debye):
    X=              0.0000    Y=             -0.0000    Z=             -1.9103  Tot=              1.9103
 Quadrupole moment (field-independent basis, Debye-Ang):
   XX=             -7.5818   YY=             -4.0826   ZZ=             -6.4089
   XY=              0.0000   XZ=             -0.0000   YZ=              0.0000
 Traceless Quadrupole moment (field-independent basis, Debye-Ang):
   XX=             -1.5574   YY=              1.9419   ZZ=             -0.3845
   XY=              0.0000   XZ=             -0.0000   YZ=              0.0000
 Octapole moment (field-independent basis, Debye-Ang**2):
  XXX=             -0.0000  YYY=             -0.0000  ZZZ=             -1.1164  XYY=              0.0000
  XXY=              0.0000  XXZ=             -0.2895  XZZ=             -0.0000  YZZ=             -0.0000
  YYZ=             -1.3744  XYZ=             -0.0000
 Hexadecapole moment (field-independent basis, Debye-Ang**3):
 XXXX=             -6.8287 YYYY=             -5.7941 ZZZZ=             -7.2609 XXXY=             -0.0000
 XXXZ=              0.0000 YYYX=             -0.0000 YYYZ=              0.0000 ZZZX=              0.0000
 ZZZY=             -0.0000 XXYY=             -2.4599 XXZZ=             -2.3884 YYZZ=             -1.9383
 XXYZ=             -0.0000 YYXZ=             -0.0000 ZZXY=             -0.0000
 N-N= 9.253567625685D+00 E-N=-1.990406540326D+02  KE= 7.594941898282D+01
 Symmetry A1   KE= 6.795087571256D+01
 Symmetry A2   KE= 1.809790791130D-33
 Symmetry B1   KE= 4.438501907273D+00
 Symmetry B2   KE= 3.560041362994D+00
 No NMR shielding tensors so no spin-rotation constants.
 Leave Link  601 at Tue Sep 10 09:05:38 2019, MaxMem=   104857600 cpu:               0.9 elap:               0.1
 (Enter /usr/site/hpc/x86_64/glibc-2.17/haswell/gaussian/g16_a.03/pgi-16.5/g16/l9999.exe)
 1\1\GINC-N016\Stability\RHF\Aug-CC-pVDZ\H2O1\C7441288\10-Sep-2019\0\\#
 p HF/aug-cc-pVDZ scf=xqc stable=opt\\h2o groundstate energy\\0,1\O,0,0
 .,0.,0.\H,0,0.,0.,0.95\H,0,0.89567,0.,-0.316663\\Version=ES64L-G16RevA
 .03\State=1-A1\HF=-76.0413914\RMSD=5.091e-09\Dipole=0.6136647,0.,0.433
 9285\Quadrupole=0.2906758,-1.1578773,0.8672014,0.,-0.8153417,0.\PG=C02
 V [C2(O1),SGV(H2)]\\@


 IMAGINATION WILL OFTEN CARRY US TO WORLDS THAT NEVER WERE.
 BUT WITHOUT IT, WE GO NOWHERE. -- CARL SAGAN (COSMOS)
 Job cpu time:       0 days  0 hours  0 minutes 20.5 seconds.
 Elapsed time:       0 days  0 hours  0 minutes  3.1 seconds.
 File lengths (MBytes):  RWF=    136 Int=      0 D2E=      0 Chk=     16 Scr=     16
 Normal termination of Gaussian 16 at Tue Sep 10 09:05:38 2019.
 Initial command:
 /usr/site/hpc/x86_64/glibc-2.17/haswell/gaussian/g16_a.03/pgi-16.5/g16/l1.exe "/gpfs/gpfs1/scratch/c7441288/MAX/TRAVIS.CO3/bare_co3_co4/Gau-22303.inp" -scrdir="/gpfs/gpfs1/scratch/c7441288/MAX/TRAVIS.CO3/bare_co3_co4/"
 Entering Link 1 = /usr/site/hpc/x86_64/glibc-2.17/haswell/gaussian/g16_a.03/pgi-16.5/g16/l1.exe PID=     22450.
  
 Copyright (c) 1988,1990,1992,1993,1995,1998,2003,2009,2016,
            Gaussian, Inc.  All Rights Reserved.
  
 This is part of the Gaussian(R) 16 program.  It is based on
 the Gaussian(R) 09 system (copyright 2009, Gaussian, Inc.),
 the Gaussian(R) 03 system (copyright 2003, Gaussian, Inc.),
 the Gaussian(R) 98 system (copyright 1998, Gaussian, Inc.),
 the Gaussian(R) 94 system (copyright 1995, Gaussian, Inc.),
 the Gaussian 92(TM) system (copyright 1992, Gaussian, Inc.),
 the Gaussian 90(TM) system (copyright 1990, Gaussian, Inc.),
 the Gaussian 88(TM) system (copyright 1988, Gaussian, Inc.),
 the Gaussian 86(TM) system (copyright 1986, Carnegie Mellon
 University), and the Gaussian 82(TM) system (copyright 1983,
 Carnegie Mellon University). Gaussian is a federally registered
 trademark of Gaussian, Inc.
  
 This software contains proprietary and confidential information,
 including trade secrets, belonging to Gaussian, Inc.
  
 This software is provided under written license and may be
 used, copied, transmitted, or stored only in accord with that
 written license.
  
 The following legend is applicable only to US Government
 contracts under FAR:
  
                    RESTRICTED RIGHTS LEGEND
  
 Use, reproduction and disclosure by the US Government is
 subject to restrictions as set forth in subparagraphs (a)
 and (c) of the Commercial Computer Software - Restricted
 Rights clause in FAR 52.227-19.
  
 Gaussian, Inc.
 340 Quinnipiac St., Bldg. 40, Wallingford CT 06492
  
  
 ---------------------------------------------------------------
 Warning -- This program may not be used in any manner that
 competes with the business of Gaussian, Inc. or will provide
 assistance to any competitor of Gaussian, Inc.  The licensee
 of this program is prohibited from giving any competitor of
 Gaussian, Inc. access to this program.  By using this program,
 the user acknowledges that Gaussian, Inc. is engaged in the
 business of creating and licensing software in the field of
 computational chemistry and represents and warrants to the
 licensee that it is not a competitor of Gaussian, Inc. and that
 it will not use this program in any manner prohibited above.
 ---------------------------------------------------------------
  

 Cite this work as:
 Gaussian 16, Revision A.03,
 M. J. Frisch, G. W. Trucks, H. B. Schlegel, G. E. Scuseria, 
 M. A. Robb, J. R. Cheeseman, G. Scalmani, V. Barone, 
 G. A. Petersson, H. Nakatsuji, X. Li, M. Caricato, A. V. Marenich, 
 J. Bloino, B. G. Janesko, R. Gomperts, B. Mennucci, H. P. Hratchian, 
 J. V. Ortiz, A. F. Izmaylov, J. L. Sonnenberg, D. Williams-Young, 
 F. Ding, F. Lipparini, F. Egidi, J. Goings, B. Peng, A. Petrone, 
 T. Henderson, D. Ranasinghe, V. G. Zakrzewski, J. Gao, N. Rega, 
 G. Zheng, W. Liang, M. Hada, M. Ehara, K. Toyota, R. Fukuda, 
 J. Hasegawa, M. Ishida, T. Nakajima, Y. Honda, O. Kitao, H. Nakai, 
 T. Vreven, K. Throssell, J. A. Montgomery, Jr., J. E. Peralta, 
 F. Ogliaro, M. J. Bearpark, J. J. Heyd, E. N. Brothers, K. N. Kudin, 
 V. N. Staroverov, T. A. Keith, R. Kobayashi, J. Normand, 
 K. Raghavachari, A. P. Rendell, J. C. Burant, S. S. Iyengar, 
 J. Tomasi, M. Cossi, J. M. Millam, M. Klene, C. Adamo, R. Cammi, 
 J. W. Ochterski, R. L. Martin, K. Morokuma, O. Farkas, 
 J. B. Foresman, and D. J. Fox, Gaussian, Inc., Wallingford CT, 2016.
 
 ******************************************
 Gaussian 16:  ES64L-G16RevA.03 25-Dec-2016
                10-Sep-2019 
 ******************************************
 %nproc=8
 Will use up to    8 processors via shared memory.
 %chk=h2o.cc_acp.stable.chk
 -----------------------------------------------------------
 #p CCSD/aug-cc-pVDZ scf=xqc guess=check geom=check opt freq
 -----------------------------------------------------------
 1/18=20,19=15,29=2,38=1/1,3;
 2/9=110,12=2,40=1/2;
 3/5=16,7=10,11=9,14=-4,25=1,30=1,71=1,116=-2/1,2,3;
 4/5=1/1;
 5/5=2,8=3,13=1,38=6/2,8;
 8/6=4,9=120000,10=1/1,4;
 9/5=7,15=1/13;
 11/28=-8,29=200,42=3/11;
 10/5=6/2;
 6/7=2,8=2,9=2,10=2/1;
 7/12=7/1,2,3,16;
 1/18=20,19=15/3(2);
 2/9=110/2;
 99//99;
 2/9=110/2;
 3/5=16,7=10,11=9,14=-2,25=1,30=1,71=1/1,2,3;
 4/5=5,16=3,69=1/1;
 5/5=2,8=3,13=1,38=5/2,8;
 8/6=4,9=120000,10=1/1,4;
 9/5=7,15=1/13;
 11/28=-8,29=200,42=3/11;
 10/5=6/2;
 7/12=7/1,2,3,16;
 1/18=20,19=15/3(-9);
 2/9=110/2;
 6/7=2,8=2,9=2,10=2/1;
 99//99;
 Leave Link    1 at Tue Sep 10 09:05:39 2019, MaxMem=           0 cpu:               3.6 elap:               0.5
 (Enter /usr/site/hpc/x86_64/glibc-2.17/haswell/gaussian/g16_a.03/pgi-16.5/g16/l101.exe)
 ----------------------
 h2o groundstate energy
 ----------------------
 Structure from the checkpoint file:  "h2o.cc_acp.stable.chk"
 Charge =  0 Multiplicity = 1
 Z-Matrix found in chk file.
 O,0,0.,0.,0.
 H,0,0.,0.,0.95
 H,0,0.89567,0.,-0.316663
 Recover connectivity data from disk.
 ITRead=  0  0  0
 MicOpt= -1 -1 -1
 NAtoms=      3 NQM=        3 NQMF=       0 NMMI=      0 NMMIF=      0
                NMic=       0 NMicF=      0.
                    Isotopes and Nuclear Properties:
 (Nuclear quadrupole moments (NQMom) in fm**2, nuclear magnetic moments (NMagM)
  in nuclear magnetons)

  Atom         1           2           3
 IAtWgt=          16           1           1
 AtmWgt=  15.9949146   1.0078250   1.0078250
 NucSpn=           0           1           1
 AtZEff=   5.6000000   1.0000000   1.0000000
 NQMom=    0.0000000   0.0000000   0.0000000
 NMagM=    0.0000000   2.7928460   2.7928460
 AtZNuc=   8.0000000   1.0000000   1.0000000
 Leave Link  101 at Tue Sep 10 09:05:39 2019, MaxMem=   104857600 cpu:               0.8 elap:               0.1
 (Enter /usr/site/hpc/x86_64/glibc-2.17/haswell/gaussian/g16_a.03/pgi-16.5/g16/l103.exe)

 GradGradGradGradGradGradGradGradGradGradGradGradGradGradGradGradGradGrad
 Berny optimization.
 Initialization pass.
                           ----------------------------
                           !    Initial Parameters    !
                           ! (Angstroms and Degrees)  !
 --------------------------                            --------------------------
 ! Name  Definition              Value          Derivative Info.                !
 --------------------------------------------------------------------------------
 ! R1    R(1,2)                  0.95           estimate D2E/DX2                !
 ! R2    R(1,3)                  0.95           estimate D2E/DX2                !
 ! A1    A(2,1,3)              109.471          estimate D2E/DX2                !
 --------------------------------------------------------------------------------
 Trust Radius=3.00D-01 FncErr=1.00D-07 GrdErr=1.00D-07 EigMax=2.50D+02 EigMin=1.00D-04
 Number of steps in this run=     20 maximum allowed number of steps=    100.
 GradGradGradGradGradGradGradGradGradGradGradGradGradGradGradGradGradGrad

 Leave Link  103 at Tue Sep 10 09:05:39 2019, MaxMem=   104857600 cpu:               0.1 elap:               0.0
 (Enter /usr/site/hpc/x86_64/glibc-2.17/haswell/gaussian/g16_a.03/pgi-16.5/g16/l202.exe)
                          Input orientation:                          
 ---------------------------------------------------------------------
 Center     Atomic      Atomic             Coordinates (Angstroms)
 Number     Number       Type             X           Y           Z
 ---------------------------------------------------------------------
      1          8           0        0.000000    0.000000   -0.000000
      2          1           0        0.000000   -0.000000    0.950000
      3          1           0        0.895670    0.000000   -0.316663
 ---------------------------------------------------------------------
                    Distance matrix (angstroms):
                    1          2          3
     1  O    0.000000
     2  H    0.950000   0.000000
     3  H    0.950000   1.551341   0.000000
 Stoichiometry    H2O
 Framework group  C2V[C2(O),SGV(H2)]
 Deg. of freedom     2
 Full point group                 C2V     NOp   4
 RotChk:  IX=3 Diff= 1.31D-15
 Largest Abelian subgroup         C2V     NOp   4
 Largest concise Abelian subgroup C2      NOp   2
                         Standard orientation:                         
 ---------------------------------------------------------------------
 Center     Atomic      Atomic             Coordinates (Angstroms)
 Number     Number       Type             X           Y           Z
 ---------------------------------------------------------------------
      1          8           0        0.000000    0.000000    0.109697
      2          1           0       -0.000000   -0.775671   -0.438788
      3          1           0        0.000000    0.775671   -0.438788
 ---------------------------------------------------------------------
 Rotational constants (GHZ):         938.4666026         416.7229588         288.5799821
 Leave Link  202 at Tue Sep 10 09:05:39 2019, MaxMem=   104857600 cpu:               0.1 elap:               0.0
 (Enter /usr/site/hpc/x86_64/glibc-2.17/haswell/gaussian/g16_a.03/pgi-16.5/g16/l301.exe)
 Standard basis: Aug-CC-pVDZ (5D, 7F)
 Ernie: Thresh=  0.10000D-02 Tol=  0.10000D-05 Strict=F.
 Ernie:  2 primitive shells out of 39 were deleted.
 There are    20 symmetry adapted cartesian basis functions of A1  symmetry.
 There are     4 symmetry adapted cartesian basis functions of A2  symmetry.
 There are     7 symmetry adapted cartesian basis functions of B1  symmetry.
 There are    12 symmetry adapted cartesian basis functions of B2  symmetry.
 There are    18 symmetry adapted basis functions of A1  symmetry.
 There are     4 symmetry adapted basis functions of A2  symmetry.
 There are     7 symmetry adapted basis functions of B1  symmetry.
 There are    12 symmetry adapted basis functions of B2  symmetry.
    41 basis functions,    65 primitive gaussians,    43 cartesian basis functions
     5 alpha electrons        5 beta electrons
       nuclear repulsion energy         9.2535676257 Hartrees.
 IExCor=    0 DFT=F Ex=HF Corr=None ExCW=0 ScaHFX=  1.000000
 ScaDFX=  1.000000  1.000000  1.000000  1.000000 ScalE2=  1.000000  1.000000
 IRadAn=      5 IRanWt=     -1 IRanGd=            0 ICorTp=0 IEmpDi=  4
 NAtoms=    3 NActive=    3 NUniq=    2 SFac= 2.25D+00 NAtFMM=   60 NAOKFM=F Big=F
 Integral buffers will be    131072 words long.
 Raffenetti 1 integral format.
 Two-electron integral symmetry is turned on.
 Leave Link  301 at Tue Sep 10 09:05:39 2019, MaxMem=   104857600 cpu:               0.3 elap:               0.1
 (Enter /usr/site/hpc/x86_64/glibc-2.17/haswell/gaussian/g16_a.03/pgi-16.5/g16/l302.exe)
 NPDir=0 NMtPBC=     1 NCelOv=     1 NCel=       1 NClECP=     1 NCelD=      1
         NCelK=      1 NCelE2=     1 NClLst=     1 CellRange=     0.0.
 One-electron integrals computed using PRISM.
 One-electron integral symmetry used in STVInt
 NBasis=    41 RedAO= T EigKep=  2.77D-03  NBF=    18     4     7    12
 NBsUse=    41 1.00D-06 EigRej= -1.00D+00 NBFU=    18     4     7    12
 Leave Link  302 at Tue Sep 10 09:05:39 2019, MaxMem=   104857600 cpu:               0.8 elap:               0.1
 (Enter /usr/site/hpc/x86_64/glibc-2.17/haswell/gaussian/g16_a.03/pgi-16.5/g16/l303.exe)
 DipDrv:  MaxL=1.
 Leave Link  303 at Tue Sep 10 09:05:39 2019, MaxMem=   104857600 cpu:               0.2 elap:               0.0
 (Enter /usr/site/hpc/x86_64/glibc-2.17/haswell/gaussian/g16_a.03/pgi-16.5/g16/l401.exe)
 Initial guess from the checkpoint file:  "h2o.cc_acp.stable.chk"
 B after Tr=    -0.000000    0.000000    0.000000
         Rot=    1.000000   -0.000000    0.000000   -0.000000 Ang=   0.00 deg.
 Guess basis will be translated and rotated to current coordinates.
 JPrj=2 DoOrth=T DoCkMO=T.
 Initial guess orbital symmetries:
       Occupied  (A1) (A1) (B2) (A1) (B1)
       Virtual   (A1) (B2) (A1) (B1) (A1) (B2) (B2) (A1) (A2) (A1)
                 (B1) (B2) (A1) (B2) (B2) (A1) (B1) (A1) (A2) (A1)
                 (B2) (B1) (A1) (B2) (A2) (B1) (A1) (B2) (A1) (B2)
                 (A1) (B1) (A1) (A2) (A1) (B2)
 The electronic state of the initial guess is 1-A1.
 Leave Link  401 at Tue Sep 10 09:05:39 2019, MaxMem=   104857600 cpu:               0.5 elap:               0.1
 (Enter /usr/site/hpc/x86_64/glibc-2.17/haswell/gaussian/g16_a.03/pgi-16.5/g16/l502.exe)
 Keep R1 ints in memory in symmetry-blocked form, NReq=2035128.
 FoFCou: FMM=F IPFlag=           0 FMFlag=           0 FMFlg1=           0
         NFxFlg=           0 DoJE=F BraDBF=F KetDBF=F FulRan=T
         wScrn=  0.000000 ICntrl=       600 IOpCl=  0 I1Cent=           0 NGrid=           0
         NMat0=    1 NMatS0=    861 NMatT0=    0 NMatD0=    1 NMtDS0=    0 NMtDT0=    0
 Petite list used in FoFCou.
 Closed shell SCF:
 Using DIIS extrapolation, IDIIS=  1040.
 NGot=   104857600 LenX=   104751108 LenY=   104748818
 Requested convergence on RMS density matrix=1.00D-08 within  32 cycles.
 Requested convergence on MAX density matrix=1.00D-06.
 Requested convergence on             energy=1.00D-06.
 No special actions if energy rises.

 Cycle   1  Pass 1  IDiag  1:
 E= -76.0413913618604    
 DIIS: error= 2.02D-09 at cycle   1 NSaved=   1.
 NSaved= 1 IEnMin= 1 EnMin= -76.0413913618604     IErMin= 1 ErrMin= 2.02D-09
 ErrMax= 2.02D-09  0.00D+00 EMaxC= 1.00D-01 BMatC= 1.07D-16 BMatP= 1.07D-16
 IDIUse=1 WtCom= 1.00D+00 WtEn= 0.00D+00
 Coeff-Com:  0.100D+01
 Coeff:      0.100D+01
 Gap=     0.545 Goal=   None    Shift=    0.000
 RMSDP=3.07D-10 MaxDP=2.99D-09              OVMax= 1.11D-08

 SCF Done:  E(RHF) =  -76.0413913619     A.U. after    1 cycles
            NFock=  1  Conv=0.31D-09     -V/T= 2.0012
 KE= 7.594941898862D+01 PE=-1.990406540384D+02 EE= 3.779627606224D+01
 Leave Link  502 at Tue Sep 10 09:05:39 2019, MaxMem=   104857600 cpu:               1.3 elap:               0.2
 (Enter /usr/site/hpc/x86_64/glibc-2.17/haswell/gaussian/g16_a.03/pgi-16.5/g16/l508.exe)
 QCSCF skips out because SCF is already converged.
 Leave Link  508 at Tue Sep 10 09:05:39 2019, MaxMem=   104857600 cpu:               0.3 elap:               0.1
 (Enter /usr/site/hpc/x86_64/glibc-2.17/haswell/gaussian/g16_a.03/pgi-16.5/g16/l801.exe)
 Windowed orbitals will be sorted by symmetry type.
 ExpMin= 2.97D-02 ExpMax= 1.17D+04 ExpMxC= 4.01D+02 IAcc=3 IRadAn=         5 AccDes= 0.00D+00
 HarFok:  IExCor=  205 AccDes= 0.00D+00 IRadAn=         5 IDoV=-2 UseB2=F ITyADJ=14
 ICtDFT= 12500011 ScaDFX=  1.000000  1.000000  1.000000  1.000000
 Largest valence mixing into a core orbital is  6.08D-05
 Largest core mixing into a valence orbital is  1.75D-05
 Range of M.O.s used for correlation:     2    41
 NBasis=    41 NAE=     5 NBE=     5 NFC=     1 NFV=     0
 NROrb=     40 NOA=     4 NOB=     4 NVA=    36 NVB=    36
 Leave Link  801 at Tue Sep 10 09:05:40 2019, MaxMem=   104857600 cpu:               0.3 elap:               0.1
 (Enter /usr/site/hpc/x86_64/glibc-2.17/haswell/gaussian/g16_a.03/pgi-16.5/g16/l804.exe)
 Closed-shell transformation, MDV=   104857600 ITran=4 ISComp=2.
 Unit  1 TFree=       2055034 TCopy=        231930.
 Semi-Direct transformation.
 ModeAB=           4 MOrb=             4 LenV=     104652347
 LASXX=        30213 LTotXX=       30213 LenRXX=       63236
 LTotAB=       33023 MaxLAS=      110560 LenRXY=           0
 NonZer=       93449 LenScr=      786427 LnRSAI=      110560
 LnScr1=      786427 LExtra=           0 Total=      1746650
 MaxDsk=          -1 SrtSym=           T ITran=            4
 DoSDTr:  NPSUse=  8
 JobTyp=0 Pass  1:  I=   1 to   4.
 (rs|ai) integrals will be sorted in core.
 Complete sort for first half transformation.
 First half transformation complete.
 Complete sort for second half transformation.
 Second half transformation complete.
 Spin components of T(2) and E(2):
     alpha-alpha T2 =       0.7637749731D-02 E2=     -0.2780902695D-01
     alpha-beta  T2 =       0.4311983661D-01 E2=     -0.1628445886D+00
     beta-beta   T2 =       0.7637749731D-02 E2=     -0.2780902695D-01
 ANorm=    0.1028783425D+01
 E2 =    -0.2184626425D+00 EUMP2 =    -0.76259854004395D+02
 Leave Link  804 at Tue Sep 10 09:05:40 2019, MaxMem=   104857600 cpu:               0.7 elap:               0.1
 (Enter /usr/site/hpc/x86_64/glibc-2.17/haswell/gaussian/g16_a.03/pgi-16.5/g16/l913.exe)
 CIDS:  MDV=   104857600.
 Frozen-core window:  NFC=   1 NFV=   0.
 IFCWin=0 IBDFC=1 NFBD=     0     0 NFCmp=     0     0 NFFFC=     0     0
 Using DD3R+UMP44R for 1st iteration.
 Using DD4RQ for 2nd and later iterations.
 Keep R2 and R3 ints in memory in symmetry-blocked form, NReq=2038048.
 FoFCou: FMM=F IPFlag=           0 FMFlag=           0 FMFlg1=           0
         NFxFlg=           0 DoJE=F BraDBF=F KetDBF=F FulRan=T
         wScrn=  0.000000 ICntrl=       600 IOpCl=  0 I1Cent=           0 NGrid=           0
         NMat0=    1 NMatS0=    861 NMatT0=    0 NMatD0=    1 NMtDS0=    0 NMtDT0=    0
 Petite list used in FoFCou.
 CIDS: In Core Option IDoMem=           1.
 Coupled Cluster theory with single and double substitutions
 ===========================================================
 Iterations=  50 Convergence= 0.100D-07
 Produce multiple copies of IABC intergrals
 Iteration Nr.   1
 **********************
 DD1Dir will call FoFMem   1 times, MxPair=        20
 NAB=    10 NAA=     0 NBB=     0.
 MP4(R+Q)=  0.24477577D-02
 Maximum subspace dimension=  5
 A-vector RMS=  5.3331880D-03 Max=  1.6816004D-02 conv= 1.00D-06.
 RLE energy=       -0.2208667639
 E3=       -0.49153126D-02        EUMP3=      -0.76264769317D+02
 E4(DQ)=   -0.14352191D-02        UMP4(DQ)=   -0.76266204536D+02
 E4(SDQ)=  -0.31162597D-02        UMP4(SDQ)=  -0.76267885577D+02
 VARIATIONAL ENERGIES WITH THE FIRST-ORDER WAVEFUNCTION:
 DE(Corr)= -0.22084063     E(Corr)=     -76.262231994    
 NORM(A)=   0.10298233D+01
 Iteration Nr.   2
 **********************
 DD1Dir will call FoFMem   1 times, MxPair=        20
 NAB=    10 NAA=     0 NBB=     0.
 A-vector RMS=  6.2789286D-04 Max=  2.9829598D-03 conv= 1.00D-06.
 RLE energy=       -0.2258950198
 DE(Corr)= -0.22530109     E(CORR)=     -76.266692450     Delta=-4.46D-03
 NORM(A)=   0.10319467D+01
 Iteration Nr.   3
 **********************
 DD1Dir will call FoFMem   1 times, MxPair=        20
 NAB=    10 NAA=     0 NBB=     0.
 A-vector RMS=  7.3067281D-04 Max=  2.8211978D-03 conv= 1.00D-06.
 RLE energy=       -0.2262563323
 DE(Corr)= -0.22585061     E(CORR)=     -76.267241976     Delta=-5.50D-04
 NORM(A)=   0.10324427D+01
 Iteration Nr.   4
 **********************
 DD1Dir will call FoFMem   1 times, MxPair=        20
 NAB=    10 NAA=     0 NBB=     0.
 A-vector RMS=  9.0466346D-05 Max=  3.6236139D-04 conv= 1.00D-06.
 RLE energy=       -0.2262917634
 DE(Corr)= -0.22626311     E(CORR)=     -76.267654474     Delta=-4.12D-04
 NORM(A)=   0.10325515D+01
 Iteration Nr.   5
 **********************
 DD1Dir will call FoFMem   1 times, MxPair=        20
 NAB=    10 NAA=     0 NBB=     0.
 A-vector RMS=  3.8005566D-05 Max=  1.6171857D-04 conv= 1.00D-06.
 RLE energy=       -0.2262969625
 DE(Corr)= -0.22629355     E(CORR)=     -76.267684910     Delta=-3.04D-05
 NORM(A)=   0.10325690D+01
 Iteration Nr.   6
 **********************
 DD1Dir will call FoFMem   1 times, MxPair=        20
 NAB=    10 NAA=     0 NBB=     0.
 A-vector RMS=  1.0259004D-05 Max=  4.0724555D-05 conv= 1.00D-06.
 RLE energy=       -0.2262943515
 DE(Corr)= -0.22629554     E(CORR)=     -76.267686899     Delta=-1.99D-06
 NORM(A)=   0.10325709D+01
 Iteration Nr.   7
 **********************
 DD1Dir will call FoFMem   1 times, MxPair=        20
 NAB=    10 NAA=     0 NBB=     0.
 A-vector RMS=  3.8859041D-06 Max=  1.2730144D-05 conv= 1.00D-06.
 RLE energy=       -0.2262949056
 DE(Corr)= -0.22629554     E(CORR)=     -76.267686897     Delta= 2.06D-09
 NORM(A)=   0.10325715D+01
 Iteration Nr.   8
 **********************
 DD1Dir will call FoFMem   1 times, MxPair=        20
 NAB=    10 NAA=     0 NBB=     0.
 A-vector RMS=  1.2700807D-06 Max=  4.8083102D-06 conv= 1.00D-06.
 RLE energy=       -0.2262951391
 DE(Corr)= -0.22629522     E(CORR)=     -76.267686581     Delta= 3.16D-07
 NORM(A)=   0.10325719D+01
 Iteration Nr.   9
 **********************
 DD1Dir will call FoFMem   1 times, MxPair=        20
 NAB=    10 NAA=     0 NBB=     0.
 A-vector RMS=  3.5433263D-07 Max=  1.3523142D-06 conv= 1.00D-06.
 RLE energy=       -0.2262953464
 DE(Corr)= -0.22629535     E(CORR)=     -76.267686716     Delta=-1.35D-07
 NORM(A)=   0.10325720D+01
 Iteration Nr.  10
 **********************
 DD1Dir will call FoFMem   1 times, MxPair=        20
 NAB=    10 NAA=     0 NBB=     0.
 A-vector RMS=  1.6674353D-07 Max=  5.9037051D-07 conv= 1.00D-06.
 RLE energy=       -0.2262953862
 DE(Corr)= -0.22629537     E(CORR)=     -76.267686728     Delta=-1.20D-08
 NORM(A)=   0.10325721D+01
 Iteration Nr.  11
 **********************
 DD1Dir will call FoFMem   1 times, MxPair=        20
 NAB=    10 NAA=     0 NBB=     0.
 A-vector RMS=  4.7386569D-08 Max=  1.7075284D-07 conv= 1.00D-06.
 RLE energy=       -0.2262954068
 DE(Corr)= -0.22629540     E(CORR)=     -76.267686761     Delta=-3.31D-08
 NORM(A)=   0.10325721D+01
 Iteration Nr.  12
 **********************
 DD1Dir will call FoFMem   1 times, MxPair=        20
 NAB=    10 NAA=     0 NBB=     0.
 A-vector RMS=  2.2288129D-08 Max=  1.0525979D-07 conv= 1.00D-06.
 RLE energy=       -0.2262954122
 DE(Corr)= -0.22629541     E(CORR)=     -76.267686771     Delta=-9.16D-09
 NORM(A)=   0.10325721D+01
 CI/CC converged in   12 iterations to DelEn=-9.16D-09 Conv= 1.00D-08 ErrA1= 2.23D-08 Conv= 1.00D-06
 Wavefunction amplitudes converged. E(Corr)=     -76.267686771    
 Largest amplitude= 3.44D-02

 Z-amplitude iterations

 Iteration Nr.   1
 **********************
 DD1Dir will call FoFMem   1 times, MxPair=        20
 NAB=    10 NAA=     0 NBB=     0.
 A-vector RMS=  2.1560691D-03 Max=  6.3823837D-03 conv= 1.00D-06.
 RLE energy=       -0.2262665790
 DE(Z)= -0.22289853     E(Z)=     -76.264289888     Delta= 3.40D-03
 NORM(A)=   0.10325582D+01
 Iteration Nr.   2
 **********************
 DD1Dir will call FoFMem   1 times, MxPair=        20
 NAB=    10 NAA=     0 NBB=     0.
 A-vector RMS=  2.1372738D-03 Max=  6.3275011D-03 conv= 1.00D-06.
 RLE energy=       -0.2262926988
 DE(Z)= -0.22289162     E(Z)=     -76.264282977     Delta= 6.91D-06
 NORM(A)=   0.10325708D+01
 Iteration Nr.   3
 **********************
 DD1Dir will call FoFMem   1 times, MxPair=        20
 NAB=    10 NAA=     0 NBB=     0.
 A-vector RMS=  2.1547699D-03 Max=  6.3787041D-03 conv= 1.00D-06.
 RLE energy=       -0.2262919211
 DE(Z)= -0.22289804     E(Z)=     -76.264289398     Delta=-6.42D-06
 NORM(A)=   0.10325703D+01
 Iteration Nr.   4
 **********************
 DD1Dir will call FoFMem   1 times, MxPair=        20
 NAB=    10 NAA=     0 NBB=     0.
 A-vector RMS=  2.1542573D-03 Max=  6.3770700D-03 conv= 1.00D-06.
 RLE energy=       -0.2262694415
 DE(Z)= -0.22289785     E(Z)=     -76.264289209     Delta= 1.89D-07
 NORM(A)=   0.10325583D+01
 Iteration Nr.   5
 **********************
 DD1Dir will call FoFMem   1 times, MxPair=        20
 NAB=    10 NAA=     0 NBB=     0.
 A-vector RMS=  2.1425866D-03 Max=  6.3426993D-03 conv= 1.00D-06.
 RLE energy=       -0.2220934307
 DE(Z)= -0.22289349     E(Z)=     -76.264284851     Delta= 4.36D-06
 NORM(A)=   0.10305673D+01
 Iteration Nr.   6
 **********************
 DD1Dir will call FoFMem   1 times, MxPair=        20
 NAB=    10 NAA=     0 NBB=     0.
 A-vector RMS=  2.7562127D-06 Max=  7.2757143D-06 conv= 1.00D-06.
 RLE energy=       -0.2220934286
 DE(Z)= -0.22209338     E(Z)=     -76.263484742     Delta= 8.00D-04
 NORM(A)=   0.10305671D+01
 Iteration Nr.   7
 **********************
 DD1Dir will call FoFMem   1 times, MxPair=        20
 NAB=    10 NAA=     0 NBB=     0.
 A-vector RMS=  1.6188243D-06 Max=  6.6811091D-06 conv= 1.00D-06.
 RLE energy=       -0.2220933274
 DE(Z)= -0.22209343     E(Z)=     -76.263484797     Delta=-5.48D-08
 NORM(A)=   0.10305669D+01
 Iteration Nr.   8
 **********************
 DD1Dir will call FoFMem   1 times, MxPair=        20
 NAB=    10 NAA=     0 NBB=     0.
 A-vector RMS=  3.7919203D-07 Max=  1.2714314D-06 conv= 1.00D-06.
 RLE energy=       -0.2220934297
 DE(Z)= -0.22209348     E(Z)=     -76.263484844     Delta=-4.77D-08
 NORM(A)=   0.10305668D+01
 Iteration Nr.   9
 **********************
 DD1Dir will call FoFMem   1 times, MxPair=        20
 NAB=    10 NAA=     0 NBB=     0.
 A-vector RMS=  1.5243552D-07 Max=  5.7580595D-07 conv= 1.00D-06.
 RLE energy=       -0.2220934002
 DE(Z)= -0.22209341     E(Z)=     -76.263484770     Delta= 7.45D-08
 NORM(A)=   0.10305668D+01
 Iteration Nr.  10
 **********************
 DD1Dir will call FoFMem   1 times, MxPair=        20
 NAB=    10 NAA=     0 NBB=     0.
 A-vector RMS=  6.4681123D-08 Max=  2.2793567D-07 conv= 1.00D-06.
 RLE energy=       -0.2220933979
 DE(Z)= -0.22209341     E(Z)=     -76.263484774     Delta=-3.58D-09
 NORM(A)=   0.10305668D+01
 CI/CC converged in   10 iterations to DelEn=-3.58D-09 Conv= 1.00D-08 ErrA1= 6.47D-08 Conv= 1.00D-06
 Z-amplitudes converged.
 Discarding MO integrals.
 Leave Link  913 at Tue Sep 10 09:05:40 2019, MaxMem=   104857600 cpu:               4.4 elap:               0.6
 (Enter /usr/site/hpc/x86_64/glibc-2.17/haswell/gaussian/g16_a.03/pgi-16.5/g16/l1111.exe)
 Unit  1 TFree=         70844 TCopy=         19503.
 Selected functions:
 Compute CCSD 2PDM.
 Form Post-SCF non-separable gradient here.
 IO1PDM=    0 IOW=    0 IO2PDM=    0.
 MDV=     104857600.
 Frozen-core window:  NFC=   1 NFV=   0.
 Leave Link 1111 at Tue Sep 10 09:05:41 2019, MaxMem=   104857600 cpu:               8.9 elap:               1.1
 (Enter /usr/site/hpc/x86_64/glibc-2.17/haswell/gaussian/g16_a.03/pgi-16.5/g16/l1002.exe)
 Minotr:  Closed shell wavefunction.
          Computing CCSD/QCISD derivatives.
          Using Z-Vector for PSCF gradient.
          Skipping F1 and S1 gradient terms here.
          IDoAtm=111
          Frozen-core window.
          Direct CPHF calculation.
          Differentiating once with respect to electric field.
                with respect to dipole field.
          Differentiating once with respect to nuclear coordinates.
          Using symmetry in CPHF.
          Requested convergence is 1.0D-10 RMS, and 1.0D-09 maximum.
          NewPWx=F KeepS1=T KeepF1=T KeepIn=T MapXYZ=F SortEE=F KeepMc=T.
 Keep R1 ints in memory in symmetry-blocked form, NReq=2035729.
 FoFCou: FMM=F IPFlag=           0 FMFlag=           0 FMFlg1=           0
         NFxFlg=           0 DoJE=F BraDBF=F KetDBF=F FulRan=T
         wScrn=  0.000000 ICntrl=       600 IOpCl=  0 I1Cent=           0 NGrid=           0
         NMat0=    1 NMatS0=    861 NMatT0=    0 NMatD0=    1 NMtDS0=    0 NMtDT0=    0
 Petite list used in FoFCou.
          MDV=     104857600 using IRadAn=       5.
          Solving linear equations separately, MaxMat=       0.
          There are     1 degrees of freedom in the 1st order CPHF.  IDoFFX=0 NUNeed=     1.
 LinEq1:  Iter=  0 NonCon=     1 RMS=5.67D-03 Max=4.24D-02 NDo=     1
 AX will form     1 AO Fock derivatives at one time.
 LinEq1:  Iter=  1 NonCon=     1 RMS=1.18D-03 Max=6.10D-03 NDo=     1
 LinEq1:  Iter=  2 NonCon=     1 RMS=4.36D-04 Max=2.94D-03 NDo=     1
 LinEq1:  Iter=  3 NonCon=     1 RMS=4.61D-05 Max=2.17D-04 NDo=     1
 LinEq1:  Iter=  4 NonCon=     1 RMS=6.72D-06 Max=2.85D-05 NDo=     1
 LinEq1:  Iter=  5 NonCon=     1 RMS=1.20D-06 Max=5.17D-06 NDo=     1
 LinEq1:  Iter=  6 NonCon=     1 RMS=1.57D-07 Max=8.34D-07 NDo=     1
 LinEq1:  Iter=  7 NonCon=     1 RMS=1.50D-08 Max=1.05D-07 NDo=     1
 LinEq1:  Iter=  8 NonCon=     1 RMS=1.57D-09 Max=1.11D-08 NDo=     1
 LinEq1:  Iter=  9 NonCon=     1 RMS=1.36D-10 Max=7.82D-10 NDo=     1
 LinEq1:  Iter= 10 NonCon=     0 RMS=1.37D-11 Max=6.31D-11 NDo=     1
 Linear equations converged to 1.000D-10 1.000D-09 after    10 iterations.
 End of Minotr F.D. properties file   721 does not exist.
 End of Minotr F.D. properties file   722 does not exist.
 End of Minotr F.D. properties file   788 does not exist.
 Leave Link 1002 at Tue Sep 10 09:05:42 2019, MaxMem=   104857600 cpu:               3.5 elap:               0.5
 (Enter /usr/site/hpc/x86_64/glibc-2.17/haswell/gaussian/g16_a.03/pgi-16.5/g16/l601.exe)
 Copying SCF densities to generalized density rwf, IOpCl= 0 IROHF=0.

 **********************************************************************

            Population analysis using the SCF density.

 **********************************************************************

 Orbital symmetries:
       Occupied  (A1) (A1) (B2) (A1) (B1)
       Virtual   (A1) (B2) (A1) (B1) (A1) (B2) (B2) (A1) (A2) (A1)
                 (B1) (B2) (A1) (B2) (B2) (A1) (B1) (A1) (A2) (A1)
                 (B2) (B1) (A1) (B2) (A2) (B1) (A1) (B2) (A1) (B2)
                 (A1) (B1) (A1) (A2) (A1) (B2)
 The electronic state is 1-A1.
 Alpha  occ. eigenvalues --  -20.57374  -1.35687  -0.73286  -0.57725  -0.50862
 Alpha virt. eigenvalues --    0.03595   0.05753   0.17438   0.19573   0.22236
 Alpha virt. eigenvalues --    0.22964   0.29590   0.32507   0.38360   0.41503
 Alpha virt. eigenvalues --    0.44248   0.53526   0.65197   0.65722   0.82904
 Alpha virt. eigenvalues --    0.91494   1.09451   1.10626   1.14974   1.33960
 Alpha virt. eigenvalues --    1.47595   1.49134   1.58162   1.99767   2.03175
 Alpha virt. eigenvalues --    2.09691   2.41966   2.48867   2.63876   2.73194
 Alpha virt. eigenvalues --    2.92417   3.66916   3.68460   3.70678   4.07711
 Alpha virt. eigenvalues --    4.30814
          Condensed to atoms (all electrons):
               1          2          3
     1  O    7.606453   0.343314   0.343314
     2  H    0.343314   0.554034  -0.043888
     3  H    0.343314  -0.043888   0.554034
 Mulliken charges:
               1
     1  O   -0.293080
     2  H    0.146540
     3  H    0.146540
 Sum of Mulliken charges =  -0.00000
 Mulliken charges with hydrogens summed into heavy atoms:
               1
     1  O   -0.000000
 Electronic spatial extent (au):  <R**2>=             19.4532
 Charge=             -0.0000 electrons
 Dipole moment (field-independent basis, Debye):
    X=              0.0000    Y=             -0.0000    Z=             -1.9103  Tot=              1.9103
 Quadrupole moment (field-independent basis, Debye-Ang):
   XX=             -7.5818   YY=             -4.0826   ZZ=             -6.4089
   XY=              0.0000   XZ=             -0.0000   YZ=              0.0000
 Traceless Quadrupole moment (field-independent basis, Debye-Ang):
   XX=             -1.5574   YY=              1.9419   ZZ=             -0.3845
   XY=              0.0000   XZ=             -0.0000   YZ=              0.0000
 Octapole moment (field-independent basis, Debye-Ang**2):
  XXX=             -0.0000  YYY=              0.0000  ZZZ=             -1.1164  XYY=              0.0000
  XXY=              0.0000  XXZ=             -0.2895  XZZ=             -0.0000  YZZ=             -0.0000
  YYZ=             -1.3744  XYZ=             -0.0000
 Hexadecapole moment (field-independent basis, Debye-Ang**3):
 XXXX=             -6.8287 YYYY=             -5.7941 ZZZZ=             -7.2609 XXXY=             -0.0000
 XXXZ=              0.0000 YYYX=             -0.0000 YYYZ=              0.0000 ZZZX=              0.0000
 ZZZY=              0.0000 XXYY=             -2.4599 XXZZ=             -2.3884 YYZZ=             -1.9383
 XXYZ=              0.0000 YYXZ=             -0.0000 ZZXY=             -0.0000
 N-N= 9.253567625685D+00 E-N=-1.990406540312D+02  KE= 7.594941898862D+01
 Symmetry A1   KE= 6.795087572380D+01
 Symmetry A2   KE= 3.045404325816D-33
 Symmetry B1   KE= 4.438501889118D+00
 Symmetry B2   KE= 3.560041375701D+00
 No NMR shielding tensors so no spin-rotation constants.
 Leave Link  601 at Tue Sep 10 09:05:42 2019, MaxMem=   104857600 cpu:               0.9 elap:               0.1
 (Enter /usr/site/hpc/x86_64/glibc-2.17/haswell/gaussian/g16_a.03/pgi-16.5/g16/l701.exe)
 ... and contract with generalized density number  7.
 Compute integral first derivatives.
 Leave Link  701 at Tue Sep 10 09:05:42 2019, MaxMem=   104857600 cpu:               0.9 elap:               0.1
 (Enter /usr/site/hpc/x86_64/glibc-2.17/haswell/gaussian/g16_a.03/pgi-16.5/g16/l702.exe)
 L702 exits ... SP integral derivatives will be done elsewhere.
 Leave Link  702 at Tue Sep 10 09:05:42 2019, MaxMem=   104857600 cpu:               0.1 elap:               0.0
 (Enter /usr/site/hpc/x86_64/glibc-2.17/haswell/gaussian/g16_a.03/pgi-16.5/g16/l703.exe)
 Integral derivatives from FoFJK, PRISM(SPDF).
 Compute integral first derivatives, UseDBF=F ICtDFT=           0.
 Calling FoFJK, ICntrl=  10002127 FMM=F ISym2X=1 I1Cent= 0 IOpClX= 0 NMat=1 NMatS=1 NMatT=0.
 FoFJK:  IHMeth= 1 ICntrl=10002127 DoSepK=F KAlg= 0 I1Cent=           0 FoldK=F
 IRaf=         0 NMat=       1 IRICut=       1 DoRegI=T DoRafI=F ISym2E= 1 IDoP0=0 IntGTp=1.
 FoFCou: FMM=F IPFlag=           0 FMFlag=      100000 FMFlg1=         800
         NFxFlg=           0 DoJE=F BraDBF=F KetDBF=F FulRan=T
         wScrn=  0.000000 ICntrl=  10002127 IOpCl=  0 I1Cent=           0 NGrid=           0
         NMat0=    1 NMatS0=      1 NMatT0=    0 NMatD0=    1 NMtDS0=    0 NMtDT0=    0
 Petite list used in FoFCou.
 Leave Link  703 at Tue Sep 10 09:05:42 2019, MaxMem=   104857600 cpu:               1.6 elap:               0.2
 (Enter /usr/site/hpc/x86_64/glibc-2.17/haswell/gaussian/g16_a.03/pgi-16.5/g16/l716.exe)
 Dipole        = 2.27497245D-17 0.00000000D+00-7.04561716D-01
 ***** Axes restored to original set *****
 -------------------------------------------------------------------
 Center     Atomic                   Forces (Hartrees/Bohr)
 Number     Number              X              Y              Z
 -------------------------------------------------------------------
      1        8          -0.021466135    0.000000000   -0.015178920
      2        1           0.007224697   -0.000000000    0.012551023
      3        1           0.014241439   -0.000000000    0.002627898
 -------------------------------------------------------------------
 Cartesian Forces:  Max     0.021466135 RMS     0.011108772
 Leave Link  716 at Tue Sep 10 09:05:42 2019, MaxMem=   104857600 cpu:               0.2 elap:               0.0
 (Enter /usr/site/hpc/x86_64/glibc-2.17/haswell/gaussian/g16_a.03/pgi-16.5/g16/l103.exe)

 GradGradGradGradGradGradGradGradGradGradGradGradGradGradGradGradGradGrad
 Berny optimization.
 FormGI is forming the generalized inverse of G from B-inverse, IUseBI=4.
 Internal  Forces:  Max     0.012970064 RMS     0.012692240
 Search for a local minimum.
 Step number   1 out of a maximum of   20
 All quantities printed in internal units (Hartrees-Bohrs-Radians)
 RMS Force = .12692D-01 SwitMx=.10000D-02 MixMth= 1
 Mixed Optimization -- RFO/linear search
 Second derivative matrix not updated -- first step.
 The second derivative matrix:
                          R1        R2        A1
           R1           0.57681
           R2           0.00000   0.57681
           A1           0.00000   0.00000   0.16000
 ITU=  0
     Eigenvalues ---    0.16000   0.57681   0.57681
 RFO step:  Lambda=-1.58577966D-03 EMin= 1.60000000D-01
 Linear search not attempted -- first point.
 Iteration  1 RMS(Cart)=  0.03888031 RMS(Int)=  0.00130110
 Iteration  2 RMS(Cart)=  0.00137866 RMS(Int)=  0.00000049
 Iteration  3 RMS(Cart)=  0.00000038 RMS(Int)=  0.00000000
 ITry= 1 IFail=0 DXMaxC= 3.88D-02 DCOld= 1.00D+10 DXMaxT= 3.00D-01 DXLimC= 3.00D+00 Rises=F
 ClnCor:  largest displacement from symmetrization is 1.15D-10 for atom     3.
 Variable       Old X    -DE/DX   Delta X   Delta X   Delta X     New X
                                 (Linear)    (Quad)   (Total)
    R1        1.79524   0.01255   0.00000   0.02170   0.02170   1.81694
    R2        1.79524   0.01255   0.00000   0.02170   0.02170   1.81694
    A1        1.91063  -0.01297   0.00000  -0.08027  -0.08027   1.83036
         Item               Value     Threshold  Converged?
 Maximum Force            0.012970     0.000450     NO 
 RMS     Force            0.012692     0.000300     NO 
 Maximum Displacement     0.038760     0.001800     NO 
 RMS     Displacement     0.039529     0.001200     NO 
 Predicted change in Energy=-7.987447D-04
 Lowest energy point so far.  Saving SCF results.
 GradGradGradGradGradGradGradGradGradGradGradGradGradGradGradGradGradGrad

 Leave Link  103 at Tue Sep 10 09:05:43 2019, MaxMem=   104857600 cpu:               0.1 elap:               0.0
 (Enter /usr/site/hpc/x86_64/glibc-2.17/haswell/gaussian/g16_a.03/pgi-16.5/g16/l202.exe)
                          Input orientation:                          
 ---------------------------------------------------------------------
 Center     Atomic      Atomic             Coordinates (Angstroms)
 Number     Number       Type             X           Y           Z
 ---------------------------------------------------------------------
      1          8           0       -0.020511   -0.000000   -0.014504
      2          1           0        0.018067   -0.000000    0.946205
      3          1           0        0.898114    0.000000   -0.298365
 ---------------------------------------------------------------------
                    Distance matrix (angstroms):
                    1          2          3
     1  O    0.000000
     2  H    0.961483   0.000000
     3  H    0.961483   1.524283   0.000000
 Stoichiometry    H2O
 Framework group  C2V[C2(O),SGV(H2)]
 Deg. of freedom     2
 Full point group                 C2V     NOp   4
 RotChk:  IX=3 Diff= 5.95D-16
 Largest Abelian subgroup         C2V     NOp   4
 Largest concise Abelian subgroup C2      NOp   2
                         Standard orientation:                         
 ---------------------------------------------------------------------
 Center     Atomic      Atomic             Coordinates (Angstroms)
 Number     Number       Type             X           Y           Z
 ---------------------------------------------------------------------
      1          8           0        0.000000   -0.000000    0.117233
      2          1           0        0.000000   -0.762141   -0.468932
      3          1           0        0.000000    0.762141   -0.468932
 ---------------------------------------------------------------------
 Rotational constants (GHZ):         821.6880011         431.6491941         282.9892585
 Leave Link  202 at Tue Sep 10 09:05:43 2019, MaxMem=   104857600 cpu:               0.1 elap:               0.0
 (Enter /usr/site/hpc/x86_64/glibc-2.17/haswell/gaussian/g16_a.03/pgi-16.5/g16/l301.exe)
 Standard basis: Aug-CC-pVDZ (5D, 7F)
 Ernie: Thresh=  0.10000D-02 Tol=  0.10000D-05 Strict=F.
 Ernie:  2 primitive shells out of 39 were deleted.
 There are    20 symmetry adapted cartesian basis functions of A1  symmetry.
 There are     4 symmetry adapted cartesian basis functions of A2  symmetry.
 There are     7 symmetry adapted cartesian basis functions of B1  symmetry.
 There are    12 symmetry adapted cartesian basis functions of B2  symmetry.
 There are    18 symmetry adapted basis functions of A1  symmetry.
 There are     4 symmetry adapted basis functions of A2  symmetry.
 There are     7 symmetry adapted basis functions of B1  symmetry.
 There are    12 symmetry adapted basis functions of B2  symmetry.
    41 basis functions,    65 primitive gaussians,    43 cartesian basis functions
     5 alpha electrons        5 beta electrons
       nuclear repulsion energy         9.1531815117 Hartrees.
 IExCor=    0 DFT=F Ex=HF Corr=None ExCW=0 ScaHFX=  1.000000
 ScaDFX=  1.000000  1.000000  1.000000  1.000000 ScalE2=  1.000000  1.000000
 IRadAn=      5 IRanWt=     -1 IRanGd=            0 ICorTp=0 IEmpDi=  4
 NAtoms=    3 NActive=    3 NUniq=    2 SFac= 2.25D+00 NAtFMM=   60 NAOKFM=F Big=F
 Integral buffers will be    131072 words long.
 Raffenetti 1 integral format.
 Two-electron integral symmetry is turned on.
 Leave Link  301 at Tue Sep 10 09:05:43 2019, MaxMem=   104857600 cpu:               0.4 elap:               0.1
 (Enter /usr/site/hpc/x86_64/glibc-2.17/haswell/gaussian/g16_a.03/pgi-16.5/g16/l302.exe)
 NPDir=0 NMtPBC=     1 NCelOv=     1 NCel=       1 NClECP=     1 NCelD=      1
         NCelK=      1 NCelE2=     1 NClLst=     1 CellRange=     0.0.
 One-electron integrals computed using PRISM.
 One-electron integral symmetry used in STVInt
 NBasis=    41 RedAO= T EigKep=  2.72D-03  NBF=    18     4     7    12
 NBsUse=    41 1.00D-06 EigRej= -1.00D+00 NBFU=    18     4     7    12
 Leave Link  302 at Tue Sep 10 09:05:43 2019, MaxMem=   104857600 cpu:               0.8 elap:               0.1
 (Enter /usr/site/hpc/x86_64/glibc-2.17/haswell/gaussian/g16_a.03/pgi-16.5/g16/l303.exe)
 DipDrv:  MaxL=1.
 Leave Link  303 at Tue Sep 10 09:05:43 2019, MaxMem=   104857600 cpu:               0.2 elap:               0.0
 (Enter /usr/site/hpc/x86_64/glibc-2.17/haswell/gaussian/g16_a.03/pgi-16.5/g16/l401.exe)
 Initial guess from the checkpoint file:  "h2o.cc_acp.stable.chk"
 B after Tr=    -0.000000    0.000000    0.000000
         Rot=    1.000000    0.000000   -0.000000   -0.000000 Ang=   0.00 deg.
 Guess basis will be translated and rotated to current coordinates.
 JPrj=2 DoOrth=T DoCkMO=T.
 Initial guess orbital symmetries:
       Occupied  (A1) (A1) (B2) (A1) (B1)
       Virtual   (A1) (B2) (A1) (B1) (A1) (B2) (B2) (A1) (A2) (A1)
                 (B1) (B2) (A1) (B2) (B2) (A1) (B1) (A1) (A2) (A1)
                 (B2) (B1) (A1) (B2) (A2) (B1) (A1) (B2) (A1) (B2)
                 (A1) (B1) (A1) (A2) (A1) (B2)
 The electronic state of the initial guess is 1-A1.
 Generating alternative initial guess.
 ExpMin= 2.97D-02 ExpMax= 1.17D+04 ExpMxC= 4.01D+02 IAcc=3 IRadAn=         5 AccDes= 0.00D+00
 Harris functional with IExCor=  205 and IRadAn=       5 diagonalized for initial guess.
 HarFok:  IExCor=  205 AccDes= 0.00D+00 IRadAn=         5 IDoV= 1 UseB2=F ITyADJ=14
 ICtDFT=  3500011 ScaDFX=  1.000000  1.000000  1.000000  1.000000
 FoFCou: FMM=F IPFlag=           0 FMFlag=      100000 FMFlg1=           0
         NFxFlg=           0 DoJE=T BraDBF=F KetDBF=T FulRan=T
         wScrn=  0.000000 ICntrl=       500 IOpCl=  0 I1Cent=   200000004 NGrid=           0
         NMat0=    1 NMatS0=      1 NMatT0=    0 NMatD0=    1 NMtDS0=    0 NMtDT0=    0
 Petite list used in FoFCou.
 Harris En= -76.1250000522092    
 Leave Link  401 at Tue Sep 10 09:05:43 2019, MaxMem=   104857600 cpu:               1.7 elap:               0.2
 (Enter /usr/site/hpc/x86_64/glibc-2.17/haswell/gaussian/g16_a.03/pgi-16.5/g16/l502.exe)
 Keep R1 ints in memory in symmetry-blocked form, NReq=2035128.
 FoFCou: FMM=F IPFlag=           0 FMFlag=           0 FMFlg1=           0
         NFxFlg=           0 DoJE=F BraDBF=F KetDBF=F FulRan=T
         wScrn=  0.000000 ICntrl=       600 IOpCl=  0 I1Cent=           0 NGrid=           0
         NMat0=    1 NMatS0=    861 NMatT0=    0 NMatD0=    1 NMtDS0=    0 NMtDT0=    0
 Petite list used in FoFCou.
 Closed shell SCF:
 Using DIIS extrapolation, IDIIS=  1040.
 NGot=   104857600 LenX=   104751108 LenY=   104748818
 Requested convergence on RMS density matrix=1.00D-08 within  32 cycles.
 Requested convergence on MAX density matrix=1.00D-06.
 Requested convergence on             energy=1.00D-06.
 No special actions if energy rises.

 Cycle   1  Pass 1  IDiag  1:
 E= -76.0406026381588    
 DIIS: error= 3.64D-03 at cycle   1 NSaved=   1.
 NSaved= 1 IEnMin= 1 EnMin= -76.0406026381588     IErMin= 1 ErrMin= 3.64D-03
 ErrMax= 3.64D-03  0.00D+00 EMaxC= 1.00D-01 BMatC= 5.19D-04 BMatP= 5.19D-04
 IDIUse=3 WtCom= 9.64D-01 WtEn= 3.64D-02
 Coeff-Com:  0.100D+01
 Coeff-En:   0.100D+01
 Coeff:      0.100D+01
 Gap=     0.543 Goal=   None    Shift=    0.000
 GapD=    0.543 DampG=2.000 DampE=1.000 DampFc=2.0000 IDamp=-1.
 RMSDP=7.42D-04 MaxDP=8.22D-03              OVMax= 8.08D-03

 Cycle   2  Pass 1  IDiag  1:
 E= -76.0411304845987     Delta-E=       -0.000527846440 Rises=F Damp=F
 DIIS: error= 6.12D-04 at cycle   2 NSaved=   2.
 NSaved= 2 IEnMin= 2 EnMin= -76.0411304845987     IErMin= 2 ErrMin= 6.12D-04
 ErrMax= 6.12D-04  0.00D+00 EMaxC= 1.00D-01 BMatC= 2.47D-05 BMatP= 5.19D-04
 IDIUse=3 WtCom= 9.94D-01 WtEn= 6.12D-03
 Coeff-Com: -0.157D+00 0.116D+01
 Coeff-En:   0.000D+00 0.100D+01
 Coeff:     -0.156D+00 0.116D+01
 Gap=     0.545 Goal=   None    Shift=    0.000
 RMSDP=1.46D-04 MaxDP=1.35D-03 DE=-5.28D-04 OVMax= 2.49D-03

 Cycle   3  Pass 1  IDiag  1:
 E= -76.0411629183449     Delta-E=       -0.000032433746 Rises=F Damp=F
 DIIS: error= 3.42D-04 at cycle   3 NSaved=   3.
 NSaved= 3 IEnMin= 3 EnMin= -76.0411629183449     IErMin= 3 ErrMin= 3.42D-04
 ErrMax= 3.42D-04  0.00D+00 EMaxC= 1.00D-01 BMatC= 2.54D-06 BMatP= 2.47D-05
 IDIUse=3 WtCom= 9.97D-01 WtEn= 3.42D-03
 Coeff-Com: -0.570D-01 0.235D+00 0.822D+00
 Coeff-En:   0.000D+00 0.000D+00 0.100D+01
 Coeff:     -0.568D-01 0.234D+00 0.823D+00
 Gap=     0.544 Goal=   None    Shift=    0.000
[...]
 (Enter /usr/site/hpc/x86_64/glibc-2.17/haswell/gaussian/g16_a.03/pgi-16.5/g16/l601.exe)
 Copying SCF densities to generalized density rwf, IOpCl= 0 IROHF=0.

 **********************************************************************

            Population analysis using the QCI/CC density.

 **********************************************************************

 Alpha  occ. eigenvalues --  -20.57869  -1.35313  -0.71445  -0.58504  -0.50895
 Alpha virt. eigenvalues --    0.03527   0.05793   0.17410   0.19709   0.22216
 Alpha virt. eigenvalues --    0.23180   0.28845   0.33110   0.38549   0.40220
 Alpha virt. eigenvalues --    0.43209   0.53852   0.64661   0.65794   0.80734
 Alpha virt. eigenvalues --    0.92882   1.10216   1.11624   1.14820   1.30311
 Alpha virt. eigenvalues --    1.46424   1.48043   1.58186   1.99895   2.00619
 Alpha virt. eigenvalues --    2.10559   2.36035   2.46900   2.61279   2.71141
 Alpha virt. eigenvalues --    2.96830   3.67290   3.68919   3.70121   4.01529
 Alpha virt. eigenvalues --    4.29417
          Condensed to atoms (all electrons):
               1          2          3
     1  O    7.612113   0.309365   0.309551
     2  H    0.309365   0.625076  -0.050281
     3  H    0.309551  -0.050281   0.625540
 Mulliken charges:
               1
     1  O   -0.231030
     2  H    0.115840
     3  H    0.115190
 Sum of Mulliken charges =  -0.00000
 Mulliken charges with hydrogens summed into heavy atoms:
               1
     1  O   -0.000000
 Electronic spatial extent (au):  <R**2>=             20.1403
 Charge=             -0.0000 electrons
 Dipole moment (field-independent basis, Debye):
    X=             -0.0000    Y=              0.0003    Z=             -1.8759  Tot=              1.8759
 Quadrupole moment (field-independent basis, Debye-Ang):
   XX=             -7.8392   YY=             -4.5147   ZZ=             -6.4727
   XY=              0.0000   XZ=              0.0000   YZ=              0.0016
 Traceless Quadrupole moment (field-independent basis, Debye-Ang):
   XX=             -1.5637   YY=              1.7608   ZZ=             -0.1972
   XY=              0.0000   XZ=              0.0000   YZ=              0.0016
 Octapole moment (field-independent basis, Debye-Ang**2):
  XXX=             -0.0000  YYY=              0.0009  ZZZ=             -1.0333  XYY=              0.0000
  XXY=              0.0004  XXZ=             -0.2434  XZZ=             -0.0000  YZZ=             -0.0011
  YYZ=             -1.2952  XYZ=             -0.0000
 Hexadecapole moment (field-independent basis, Debye-Ang**3):
 XXXX=             -7.6402 YYYY=             -6.6466 ZZZZ=             -8.0005 XXXY=              0.0000
 XXXZ=              0.0000 YYYX=              0.0000 YYYZ=             -0.0000 ZZZX=              0.0000
 ZZZY=             -0.0001 XXYY=             -2.7066 XXZZ=             -2.6587 YYZZ=             -2.1457
 XXYZ=             -0.0004 YYXZ=              0.0000 ZZXY=              0.0000
 N-N= 9.125064908577D+00 E-N=-1.985805933283D+02  KE= 7.604606743945D+01
 No NMR shielding tensors so no spin-rotation constants.
 Leave Link  601 at Tue Sep 10 09:06:52 2019, MaxMem=   104857600 cpu:               0.9 elap:               0.1
 (Enter /usr/site/hpc/x86_64/glibc-2.17/haswell/gaussian/g16_a.03/pgi-16.5/g16/l701.exe)
 ... and contract with generalized density number  7.
 Compute integral first derivatives.
 Leave Link  701 at Tue Sep 10 09:06:52 2019, MaxMem=   104857600 cpu:               1.3 elap:               0.2
 (Enter /usr/site/hpc/x86_64/glibc-2.17/haswell/gaussian/g16_a.03/pgi-16.5/g16/l702.exe)
 L702 exits ... SP integral derivatives will be done elsewhere.
 Leave Link  702 at Tue Sep 10 09:06:52 2019, MaxMem=   104857600 cpu:               0.1 elap:               0.0
 (Enter /usr/site/hpc/x86_64/glibc-2.17/haswell/gaussian/g16_a.03/pgi-16.5/g16/l703.exe)
 Integral derivatives from FoFJK, PRISM(SPDF).
 Compute integral first derivatives, UseDBF=F ICtDFT=           0.
 Calling FoFJK, ICntrl=  10002127 FMM=F ISym2X=0 I1Cent= 0 IOpClX= 0 NMat=1 NMatS=1 NMatT=0.
 FoFJK:  IHMeth= 1 ICntrl=10002127 DoSepK=F KAlg= 0 I1Cent=           0 FoldK=F
 IRaf=         0 NMat=       1 IRICut=       1 DoRegI=T DoRafI=F ISym2E= 0 IDoP0=0 IntGTp=1.
 FoFCou: FMM=F IPFlag=           0 FMFlag=      100000 FMFlg1=         800
         NFxFlg=           0 DoJE=F BraDBF=F KetDBF=F FulRan=T
         wScrn=  0.000000 ICntrl=  10002127 IOpCl=  0 I1Cent=           0 NGrid=           0
         NMat0=    1 NMatS0=      1 NMatT0=    0 NMatD0=    1 NMtDS0=    0 NMtDT0=    0
 Symmetry not used in FoFCou.
 Leave Link  703 at Tue Sep 10 09:06:52 2019, MaxMem=   104857600 cpu:               1.3 elap:               0.2
 (Enter /usr/site/hpc/x86_64/glibc-2.17/haswell/gaussian/g16_a.03/pgi-16.5/g16/l716.exe)
 Dipole        =-1.68261033D-15 1.34730296D-04-7.38046080D-01
 -------------------------------------------------------------------
 Center     Atomic                   Forces (Hartrees/Bohr)
 Number     Number              X              Y              Z
 -------------------------------------------------------------------
      1        8          -0.000000000   -0.000501493   -0.000330183
      2        1           0.000000000    0.000371812    0.000360733
      3        1           0.000000000    0.000129681   -0.000030550
 -------------------------------------------------------------------
 Cartesian Forces:  Max     0.000501493 RMS     0.000268046
 Leave Link  716 at Tue Sep 10 09:06:52 2019, MaxMem=   104857600 cpu:               0.2 elap:               0.0
 (Enter /usr/site/hpc/x86_64/glibc-2.17/haswell/gaussian/g16_a.03/pgi-16.5/g16/l106.exe)
 NDeriv=      9 NFrqRd=  0 NDerD0=      0 MskFDP=       0 MskDFD=       0 MskDF0=       0
 Re-enter D2Numr:  atom   2 IXYZ=3 step-down number 1
 Finish atom      2 at Tue Sep 10 09:06:53 2019
 Maximum difference in off-diagonal FC elements:
 I=  9 J=  2 Difference=    8.8415419006D-06
 Max difference between analytic and numerical forces:
 I=  8 Difference=    5.4128123234D-07
 FinFTb:  IFil= 1 IFilD=  777 LTop=  1 LFil=         4 LTop1=  0 IMask=  1
 Leave Link  106 at Tue Sep 10 09:06:54 2019, MaxMem=   104857600 cpu:               8.4 elap:               1.2
 (Enter /usr/site/hpc/x86_64/glibc-2.17/haswell/gaussian/g16_a.03/pgi-16.5/g16/l716.exe)
 Dipole        = 2.34627451D-17-9.04275721D-16-7.37735248D-01
 Full mass-weighted force constant matrix:
 Low frequencies ---  -37.1241  -36.9244  -35.7095   -0.0032    0.0055    0.6880
 Low frequencies --- 1648.6305 3823.0518 3938.3142
 Diagonal vibrational polarizability:
        0.0000000       0.0874233       0.6787764
 Harmonic frequencies (cm**-1), IR intensities (KM/Mole), Raman scattering
 activities (A**4/AMU), depolarization ratios for plane and unpolarized
 incident light, reduced masses (AMU), force constants (mDyne/A),
 and normal coordinates:
                      1                      2                      3
                     A1                     A1                     B2
 Frequencies --   1648.6305              3823.0518              3938.3142
 Red. masses --      1.0823                 1.0455                 1.0815
 Frc consts  --      1.7332                 9.0032                 9.8832
 IR Inten    --     68.0149                 2.9053                50.3866
  Atom  AN      X      Y      Z        X      Y      Z        X      Y      Z
     1   8     0.00   0.00  -0.07     0.00   0.00  -0.05    -0.00  -0.07  -0.00
     2   1    -0.00  -0.43   0.56     0.00   0.58   0.40    -0.00   0.56   0.43
     3   1    -0.00   0.43   0.56    -0.00  -0.58   0.40     0.00   0.56  -0.43

 -------------------
 - Thermochemistry -
 -------------------
 Temperature   298.150 Kelvin.  Pressure   1.00000 Atm.
 Atom     1 has atomic number  8 and mass  15.99491
 Atom     2 has atomic number  1 and mass   1.00783
 Atom     3 has atomic number  1 and mass   1.00783
 Molecular mass:    18.01056 amu.
 Principal axes and moments of inertia in atomic units:
                           1         2         3
     Eigenvalues --     2.24594   4.16470   6.41064
           X            0.00000  -0.00000   1.00000
           Y            1.00000  -0.00000  -0.00000
           Z            0.00000   1.00000   0.00000
 This molecule is an asymmetric top.
 Rotational symmetry number  2.
 Rotational temperatures (Kelvin)     38.56466    20.79716    13.51096
 Rotational constants (GHZ):         803.55701   433.34240   281.52275
 Zero-point vibrational energy      56284.3 (Joules/Mol)
                                   13.45227 (Kcal/Mol)
 Vibrational temperatures:   2372.01  5500.52  5666.36
          (Kelvin)
 
 Zero-point correction=                           0.021438 (Hartree/Particle)
 Thermal correction to Energy=                    0.024273
 Thermal correction to Enthalpy=                  0.025217
 Thermal correction to Gibbs Free Energy=         0.003785
 Sum of electronic and zero-point Energies=            -76.247196
 Sum of electronic and thermal Energies=               -76.244360
 Sum of electronic and thermal Enthalpies=             -76.243416
 Sum of electronic and thermal Free Energies=          -76.264848
 
                     E (Thermal)             CV                S
                      KCal/Mol        Cal/Mol-Kelvin    Cal/Mol-Kelvin
 Total                   15.231              6.006             45.108
 Electronic               0.000              0.000              0.000
 Translational            0.889              2.981             34.608
 Rotational               0.889              2.981             10.493
 Vibrational             13.454              0.044              0.006
                       Q            Log10(Q)             Ln(Q)
 Total Bot       0.181583D-01         -1.740925         -4.008628
 Total V=0       0.131721D+09          8.119655         18.696195
 Vib (Bot)       0.137903D-09         -9.860427        -22.704473
 Vib (V=0)       0.100035D+01          0.000152          0.000351
 Electronic      0.100000D+01          0.000000          0.000000
 Translational   0.300431D+07          6.477745         14.915559
 Rotational      0.438286D+02          1.641757          3.780286
 
                                                        h2o groundstate energy
                                                             IR Spectrum
 
     3   3                                                                     1                                                     
     9   8                                                                     6                                                     
     3   2                                                                     4                                                     
     8   3                                                                     9                                                     
 
     X   X                                                                     X                                                     
     X                                                                         X                                                     
     X                                                                         X                                                     
     X                                                                         X                                                     
     X                                                                         X                                                     
     X                                                                         X                                                     
     X                                                                         X                                                     
     X                                                                         X                                                     
     X                                                                         X                                                     
     X                                                                         X                                                     
     X                                                                         X                                                     
     X                                                                         X                                                     
     X                                                                         X                                                     
     X                                                                         X                                                     
     X                                                                         X                                                     
                                                                               X                                                     
                                                                               X                                                     
                                                                               X                                                     
                                                                               X                                                     
                                                                               X                                                     
 
 ***** Axes restored to original set *****
 -------------------------------------------------------------------
 Center     Atomic                   Forces (Hartrees/Bohr)
 Number     Number              X              Y              Z
 -------------------------------------------------------------------
      1        8          -0.000085920    0.000000000   -0.000060755
      2        1           0.000002359   -0.000000000    0.000087796
      3        1           0.000083561   -0.000000000   -0.000027041
 -------------------------------------------------------------------
 Cartesian Forces:  Max     0.000087796 RMS     0.000054263
 Force constants in Cartesian coordinates: 
                1             2             3             4             5 
      1  0.534967D+00
      2  0.000000D+00 -0.932849D-04
      3 -0.104361D+00  0.000000D+00  0.608760D+00
      4 -0.463517D-01  0.000000D+00 -0.574390D-01  0.485942D-01
      5  0.000000D+00  0.466643D-04  0.000000D+00  0.000000D+00 -0.476603D-04
      6  0.544014D-02  0.000000D+00 -0.525513D+00  0.630631D-02  0.000000D+00
      7 -0.488615D+00  0.000000D+00  0.161802D+00 -0.224089D-02  0.000000D+00
      8  0.000000D+00  0.466643D-04  0.000000D+00  0.000000D+00  0.000000D+00
      9  0.989226D-01  0.000000D+00 -0.832490D-01  0.511303D-01  0.000000D+00
                6             7             8             9 
      6  0.541677D+00
      7 -0.117470D-01  0.490855D+00
      8  0.000000D+00  0.000000D+00 -0.476603D-04
      9 -0.161648D-01 -0.150054D+00  0.000000D+00  0.994161D-01
 FormGI is forming the generalized inverse of G from B-inverse, IUseBI=4.
 Force constants in internal coordinates: 
                1             2             3 
      1  0.541197D+00
      2 -0.734923D-02  0.541197D+00
      3  0.302617D-01  0.302617D-01  0.163127D+00
 Leave Link  716 at Tue Sep 10 09:06:54 2019, MaxMem=   104857600 cpu:               0.2 elap:               0.0
 (Enter /usr/site/hpc/x86_64/glibc-2.17/haswell/gaussian/g16_a.03/pgi-16.5/g16/l103.exe)

 GradGradGradGradGradGradGradGradGradGradGradGradGradGradGradGradGradGrad
 Berny optimization.
 Red2BG is reusing G-inverse.
 Internal  Forces:  Max     0.000087811 RMS     0.000071720
 Search for a local minimum.
 Step number   1 out of a maximum of    2
 All quantities printed in internal units (Hartrees-Bohrs-Radians)
 Second derivative matrix not updated -- analytic derivatives used.
 The second derivative matrix:
                          R1        R2        A1
           R1           0.54120
           R2          -0.00735   0.54120
           A1           0.03026   0.03026   0.16313
 ITU=  0
     Eigenvalues ---    0.15825   0.53872   0.54855
 Angle between quadratic step and forces=  11.70 degrees.
 Linear search not attempted -- first point.
 Iteration  1 RMS(Cart)=  0.00010811 RMS(Int)=  0.00000000
 Iteration  2 RMS(Cart)=  0.00000000 RMS(Int)=  0.00000000
 ITry= 1 IFail=0 DXMaxC= 1.14D-04 DCOld= 1.00D+10 DXMaxT= 3.00D-01 DXLimC= 3.00D+00 Rises=F
 ClnCor:  largest displacement from symmetrization is 2.33D-14 for atom     3.
 Variable       Old X    -DE/DX   Delta X   Delta X   Delta X     New X
                                 (Linear)    (Quad)   (Total)
    R1        1.82232   0.00009   0.00000   0.00017   0.00017   1.82249
    R2        1.82232   0.00009   0.00000   0.00017   0.00017   1.82249
    A1        1.81767   0.00000   0.00000  -0.00004  -0.00004   1.81762
         Item               Value     Threshold  Converged?
 Maximum Force            0.000088     0.000450     YES
 RMS     Force            0.000072     0.000300     YES
 Maximum Displacement     0.000114     0.001800     YES
 RMS     Displacement     0.000108     0.001200     YES
 Predicted change in Energy=-1.458905D-08
 Optimization completed.
    -- Stationary point found.
                           ----------------------------
                           !   Optimized Parameters   !
                           ! (Angstroms and Degrees)  !
 --------------------------                            --------------------------
 ! Name  Definition              Value          Derivative Info.                !
 --------------------------------------------------------------------------------
 ! R1    R(1,2)                  0.9643         -DE/DX =    0.0001              !
 ! R2    R(1,3)                  0.9643         -DE/DX =    0.0001              !
 ! A1    A(2,1,3)              104.1446         -DE/DX =    0.0                 !
 --------------------------------------------------------------------------------
 GradGradGradGradGradGradGradGradGradGradGradGradGradGradGradGradGradGrad

 Leave Link  103 at Tue Sep 10 09:06:54 2019, MaxMem=   104857600 cpu:               0.3 elap:               0.0
 (Enter /usr/site/hpc/x86_64/glibc-2.17/haswell/gaussian/g16_a.03/pgi-16.5/g16/l9999.exe)
 1\1\GINC-N016\Freq\RCCSD-FC\Aug-CC-pVDZ\H2O1\C7441288\10-Sep-2019\0\\#
 P Geom=AllCheck Guess=TCheck SCRF=Check GenChk RCCSD(FC)/Aug-CC-pVDZ F
 req\\h2o groundstate energy\\0,1\O,-0.0240904729,0.,-0.0170346427\H,0.
 0207168288,0.,0.9462538948\H,0.8990436568,0.,-0.2958820548\\Version=ES
 64L-G16RevA.03\State=1-A1\HF=-76.0409153\MP2=-76.260904\MP3=-76.265548
 5\MP4D=-76.2695766\MP4DQ=-76.2670777\MP4SDQ=-76.2688343\CCSD=-76.26863
 31\RMSD=7.322e-10\RMSF=5.426e-05\ZeroPoint=0.0214375\Thermal=0.0242727
 \Dipole=0.6023574,0.,0.425933\DipoleDeriv=-0.3780633,0.,0.0691831,0.,-
 0.6586217,0.,0.0691831,0.,-0.4269825,0.259603,0.,-0.0558849,0.,0.32931
 09,0.,-0.0632309,0.,0.1429055,0.1184375,0.,-0.013322,0.,0.3293109,0.,-
 0.005976,0.,0.284071\PG=C02V [C2(O1),SGV(H2)]\NImag=0\\0.53496651,0.,-
 0.00009328,-0.10436089,0.,0.60875977,-0.04635169,0.,-0.05743897,0.0485
 9423,0.,0.00004666,0.,0.,-0.00004766,0.00544014,0.,-0.52551259,0.00630
 631,0.,0.54167688,-0.48861529,0.,0.16180176,-0.00224089,0.,-0.01174704
 ,0.49085500,0.,0.00004666,0.,0.,0.00000097,0.,0.,-0.00004766,0.0989226
 5,0.,-0.08324900,0.05113035,0.,-0.01616480,-0.15005431,0.,0.09941612\\
 0.00008592,0.,0.00006075,-0.00000236,0.,-0.00008780,-0.00008356,0.,0.0
 0002704\\\@


 Cherishing children is the mark of a civilized society.
 -- Joan Ganz Cooney
 Job cpu time:       0 days  0 hours  7 minutes  5.5 seconds.
 Elapsed time:       0 days  0 hours  1 minutes  0.0 seconds.
 File lengths (MBytes):  RWF=    200 Int=      0 D2E=      0 Chk=     48 Scr=     16
 Normal termination of Gaussian 16 at Tue Sep 10 09:06:54 2019.
